date:                Wed  4 May 10:05:38 BST 2022
hostname:            cx3-1-5.cx3.hpc.ic.ac.uk
system:              Linux cx3-1-5.cx3.hpc.ic.ac.uk 4.18.0-348.20.1.el8_5.x86_64 #1 SMP Tue Mar 8 12:56:54 EST 2022 x86_64 x86_64 x86_64 GNU/Linux
user:                bc713
input:               /rds/general/user/bc713/home/classification/cao/cao_CONFCNT.d12
output:              /rds/general/user/bc713/home/classification/cao/cao_CONFCNT.out
executable script:   /rds/general/user/gmallia/home/CRYSTAL17_cx1/v2.2gnu/runcryP
executable dir:      /rds/general/user/bc713/home/../../gmallia/home/CRYSTAL17_cx1/v2.2gnu/bin/Linux-mpigfortran_MPP/Xeon___mpich__3.2.1
executables:     
                    -rwxr-xr-x. 1 gmallia hpc-nmh 40416696 Jul  5  2019 crystal
                    -rwxr-xr-x. 1 gmallia hpc-nmh    25145 Jul  5  2019 INFO
                    -rwxr-xr-x. 1 gmallia hpc-nmh       75 Jul  5  2019 INFO.module.bash
                    -rwxr-xr-x. 1 gmallia hpc-nmh      355 Jul  5  2019 INFO.module.csh
                    -rwxr-xr-x. 1 gmallia hpc-nmh 41994992 Jul  5  2019 MPPcrystal
                    -rwxr-xr-x. 1 gmallia hpc-nmh 40470904 Jul  5  2019 Pcrystal
                    -rwxr-xr-x. 1 gmallia hpc-nmh 40470904 Aug 21  2019 Pecrystal
                    -rwxr-xr-x. 1 gmallia hpc-nmh 10689448 Jul  5  2019 Pproperties
                    -rwxr-xr-x. 1 gmallia hpc-nmh 10633848 Jul  5  2019 properties
                    -rwxr-xr-x. 1 gmallia hpc-nmh      277 Jul  5  2019 README 

Command:             mpiexec  /rds/general/user/bc713/home/../../gmallia/home/CRYSTAL17_cx1/v2.2gnu/bin/Linux-mpigfortran_MPP/Xeon___mpich__3.2.1/Pcrystal
temporary directory: /var/tmp/pbs.5509774.pbs/cao_CONFCNT_3167481      
<qstat -f 5509774.pbs>
Connection timed out
qstat: cannot connect to server pbs (errno=110)
</qstat -f 5509774.pbs>
input data /rds/general/user/bc713/home/classification/cao/cao_CONFCNT.d12
CaMgO2
EXTERNAL
SCELCONF
3 0 0
0 3 0
0 0 3
EXTPRT
CONFCOUNT
1
1
ONLYCOMP
1
18
END
external geometry input found in /rds/general/user/bc713/home/classification/cao/cao_CONFCNT.gui
          48 PROCESSORS WORKING

         
 *******************************************************************************
 *                                                                             *
 *                               CRYSTAL17                                     *
 *                      public : 1.0.2 - March 1st, 2018                       *
 *                       HTTP://WWW.CRYSTAL.UNITO.IT                           *
 *                                                                             *
 *                              MAIN AUTHORS                                   *
 *                                                                             *
 *  R. DOVESI(1,11), V.R. SAUNDERS(2), C. ROETTI(1,11), R. ORLANDO(1,11),      *
 *  C.M. ZICOVICH-WILSON(1,3), F. PASCALE(4), B. CIVALLERI(1,11),              *
 *  K. DOLL(5), N.M. HARRISON(2,6), I.J. BUSH(7), Ph. D'ARCO(8),               *
 *  M. LLUNELL(9), M. CAUSA'(10), Y. NOEL(8), L. MASCHIO(1,11), A. ERBA(1,11)  *
 *  M. RE'RAT(14), S. CASASSA(1,11)                                            *
 *                                                                             *
 *        CONTRIBUTIONS TO THE CODE HAVE ALSO BEEN GIVEN BY                    *
 *                                                                             *
 *  M. FERRABONE(1,11), M. DE LA PIERRE(1,11), M. FERRERO(1,11),               *
 *  J. BAIMA(1,11), E. ALBANESE(1,11), M.F. PEINTINGER(12), R. BAST(13),       *
 *  B. KIRTMAN(15), V. LACIVITA(1,11), R. DEMICHELIS(1,16)                     *
 *  G. BRANDEBURG(17), S. SALUSTRO(1,11), G. SANSONE(1,11)                     *
 *  M.T. RUGGIERO(18)                                                          *
 *                                                                             *
 * (1) THEORETICAL CHEMISTRY GROUP - UNIVERSITA' DI TORINO - TORINO (ITALY)    *
 * (2) COMPUTATIONAL SCIENCE & ENGINEERING DEPARTMENT - STFC DARESBURY (UK)    *
 * (3) UNIVERSIDAD AUTONOMA DEL ESTADO DE MORELOS - CUERNAVACA (MEXICO)        *
 * (4) UNIVERSITE' DE LORRAINE - NANCY (FRANCE)                                *
 * (5) UNIVERSITAET STUTTGART- STUTTGART (GERMANY)                             *
 * (6) IMPERIAL COLLEGE - LONDON (UK)                                          *
 * (7) OXFORD E-RESEARCH CENTRE - OXFORD (UK)                                  *
 * (8) UPMC - SORBONNE UNIVERSITES - PARIS (FRANCE)                            *
 * (9) UNIVERSIDAD DE BARCELONA - BARCELONA (SPAIN)                            *
 *(10) UNIVERSITA' DI NAPOLI "FEDERICO II" - NAPOLI (ITALY)                    *
 *(11) NIS - NANOSTRUCTURED INTERFACES AND SURFACES - TORINO (ITALY)           *
 *(12) MPI FUER CHEMISCHE ENERGIEKONVERSION - MUELHEIM AN DER RUHR (GERMANY)   *
 *(13) UNIVERSITY OF TROMSO - TROMSO (NORWAY)                                  *
 *(14) UNIVERSITE' DE PAU ET DES PAYS DE L'ADOUR - PAU (FRANCE)                *
 *(15) UNIVERSITY OF CALIFORNIA SANTA BARBARA - SANTA BARBARA (USA)            *
 *(16) CURTIN UNIVERSITY - PERTH (AUSTRALIA)                                   *
 *(17) UNIVERSITY COLLEGE LONDON - LONDON (UK)                                 *
 *(18) CAMBRIDGE UNIVERSITY - CAMBRIDGE (UK)                                   *
 *                                                                             *
 *******************************************************************************
 EEEEEEEEEE STARTING  DATE 04 05 2022 TIME 10:07:50.1
 CaMgO2                                                                          

 GEOMETRY INPUT FROM EXTERNAL FILE (FORTRAN UNIT 34)
 3D - CRYSTAL 

 *******************************************************************************
 LATTICE PARAMETERS  (ANGSTROMS AND DEGREES) - PRIMITIVE CELL
       A          B          C        ALPHA      BETA     GAMMA        VOLUME
    3.42778    3.42778    3.42778    60.00000  60.00000  60.00000     28.478994

 NUMBER OF IRREDUCIBLE ATOMS IN THE CELL:    2

 CARTESIAN COORDINATES (ANGSTROM) - IRREDUCIBLE ATOMS AND SYMMETRY RELATED

 AT.IRR.  AT  AT.N.          X                   Y                   Z
     1     1    20    0.000000000000E+00  0.000000000000E+00  0.000000000000E+00
     2     2     8    2.423808003726E+00  2.423808003726E+00  2.423808003726E+00

 SPACE  GROUP  N.                     :  225
 NUMBER OF SYMMETRY OPERATORS         :   48
 *******************************************************************************
 LATTICE PARAMETERS (ANGSTROMS AND DEGREES) - BOHR = 0.5291772083 ANGSTROM
 PRIMITIVE CELL - CENTRING CODE 1/0 VOLUME=    28.478994 - DENSITY  3.263 g/cm^3
         A              B              C           ALPHA      BETA       GAMMA 
     3.42778215     3.42778215     3.42778215    60.000000  60.000000  60.000000
 *******************************************************************************
 ATOMS IN THE ASYMMETRIC UNIT    2 - ATOMS IN THE UNIT CELL:    2
     ATOM                 X/A                 Y/B                 Z/C    
 *******************************************************************************
      1 T  20 CA    0.000000000000E+00  0.000000000000E+00  0.000000000000E+00
      2 T   8 O     4.999999999992E-01  4.999999999992E-01  4.999999999992E-01

 T = ATOM BELONGING TO THE ASYMMETRIC UNIT
 *******************************************************************************
 * GEOMETRY EDITING - INPUT COORDINATES ARE GIVEN IN ANGSTROM         
 *******************************************************************************

 GEOMETRY NOW FULLY CONSISTENT WITH THE GROUP

 GCALCO - MAX INDICES DIRECT LATTICE VECTOR    14    14    14
 NO.OF VECTORS CREATED 6999 STARS  105 RMAX    36.27624 BOHR

 *******************************************************************************
 * SUPERCELL OPTION
 *******************************************************************************


        EXPANSION MATRIX OF PRIMITIVE CELL
 E1     3.000     0.000     0.000
 E2     0.000     3.000     0.000
 E3     0.000     0.000     3.000

 NUMBER OF ATOMS PER SUPERCELL    54

        DIRECT LATTICE VECTORS COMPONENTS (ANGSTROM)
 B1     0.000     7.271     7.271
 B2     7.271     0.000     7.271
 B3     7.271     7.271     0.000

 LATTICE PARAMETERS  (ANGSTROM AND DEGREES)
       A          B          C         ALPHA     BETA     GAMMA        VOLUME
   10.28335   10.28335   10.28335    60.00000  60.00000  60.00000    768.932833


 **** ATOMS BELONGING TO THE SUPERCELL
 LABEL AT.NO.      COORDINATES (ANGSTROM AND FRACTIONAL)
     1    20     0.0000     0.0000     0.0000     0.0000     0.0000     0.0000
     2    20     2.4238     2.4238     0.0000     0.0000     0.0000     0.3333
     3    20    -2.4238    -2.4238     0.0000     0.0000     0.0000    -0.3333
     4    20     2.4238     0.0000     2.4238     0.0000     0.3333     0.0000
     5    20     4.8476     2.4238     2.4238     0.0000     0.3333     0.3333
     6    20    -0.0000    -2.4238     2.4238     0.0000     0.3333    -0.3333
     7    20    -2.4238     0.0000    -2.4238     0.0000    -0.3333     0.0000
     8    20    -0.0000     2.4238    -2.4238     0.0000    -0.3333     0.3333
     9    20    -4.8476    -2.4238    -2.4238     0.0000    -0.3333    -0.3333
    10    20     0.0000     2.4238     2.4238     0.3333     0.0000     0.0000
    11    20     2.4238     4.8476     2.4238     0.3333     0.0000     0.3333
    12    20    -2.4238    -0.0000     2.4238     0.3333     0.0000    -0.3333
    13    20     2.4238     2.4238     4.8476     0.3333     0.3333     0.0000
    14    20     4.8476     4.8476     4.8476     0.3333     0.3333     0.3333
    15    20    -0.0000    -0.0000     4.8476     0.3333     0.3333    -0.3333
    16    20    -2.4238     2.4238    -0.0000     0.3333    -0.3333     0.0000
    17    20    -0.0000     4.8476    -0.0000     0.3333    -0.3333     0.3333
    18    20    -4.8476    -0.0000    -0.0000     0.3333    -0.3333    -0.3333
    19    20     0.0000    -2.4238    -2.4238    -0.3333     0.0000     0.0000
    20    20     2.4238    -0.0000    -2.4238    -0.3333     0.0000     0.3333
    21    20    -2.4238    -4.8476    -2.4238    -0.3333     0.0000    -0.3333
    22    20     2.4238    -2.4238    -0.0000    -0.3333     0.3333     0.0000
    23    20     4.8476    -0.0000    -0.0000    -0.3333     0.3333     0.3333
    24    20    -0.0000    -4.8476    -0.0000    -0.3333     0.3333    -0.3333
    25    20    -2.4238    -2.4238    -4.8476    -0.3333    -0.3333     0.0000
    26    20    -0.0000    -0.0000    -4.8476    -0.3333    -0.3333     0.3333
    27    20    -4.8476    -4.8476    -4.8476    -0.3333    -0.3333    -0.3333
    28     8     2.4238     2.4238     2.4238     0.1667     0.1667     0.1667
    29     8    -2.4238    -2.4238     2.4238     0.1667     0.1667    -0.5000
    30     8    -0.0000    -0.0000     2.4238     0.1667     0.1667    -0.1667
    31     8    -2.4238     2.4238    -2.4238     0.1667    -0.5000     0.1667
    32     8     7.2714     4.8476     4.8476     0.1667     0.5000     0.5000
    33     8    -4.8476    -0.0000    -2.4238     0.1667    -0.5000    -0.1667
    34     8    -0.0000     2.4238    -0.0000     0.1667    -0.1667     0.1667
    35     8    -4.8476    -2.4238    -0.0000     0.1667    -0.1667    -0.5000
    36     8    -2.4238    -0.0000    -0.0000     0.1667    -0.1667    -0.1667
    37     8     2.4238    -2.4238    -2.4238    -0.5000     0.1667     0.1667
    38     8     4.8476     7.2714     4.8476     0.5000     0.1667     0.5000
    39     8    -0.0000    -4.8476    -2.4238    -0.5000     0.1667    -0.1667
    40     8     4.8476     4.8476     7.2714     0.5000     0.5000     0.1667
    41     8     7.2714     7.2714     7.2714     0.5000     0.5000     0.5000
    42     8     2.4238     2.4238     7.2714     0.5000     0.5000    -0.1667
    43     8    -0.0000    -2.4238    -4.8476    -0.5000    -0.1667     0.1667
    44     8     2.4238     7.2714     2.4238     0.5000    -0.1667     0.5000
    45     8    -2.4238     2.4238     2.4238     0.5000    -0.1667    -0.1667
    46     8     2.4238    -0.0000    -0.0000    -0.1667     0.1667     0.1667
    47     8    -2.4238    -4.8476    -0.0000    -0.1667     0.1667    -0.5000
    48     8    -0.0000    -2.4238    -0.0000    -0.1667     0.1667    -0.1667
    49     8    -2.4238    -0.0000    -4.8476    -0.1667    -0.5000     0.1667
    50     8     7.2714     2.4238     2.4238    -0.1667     0.5000     0.5000
    51     8     2.4238    -2.4238     2.4238    -0.1667     0.5000    -0.1667
    52     8    -0.0000    -0.0000    -2.4238    -0.1667    -0.1667     0.1667
    53     8     2.4238     2.4238    -2.4238    -0.1667    -0.1667     0.5000
    54     8    -2.4238    -2.4238    -2.4238    -0.1667    -0.1667    -0.1667

 **************************** SUPERCELL GENERATED ****************************

 CONSTRUCTION OF SUPERCELL PRODUCT GROUP


     SUPERCELL MATRIX

  3.00000 0.00000 0.00000
  0.00000 3.00000 0.00000
  0.00000 0.00000 3.00000


     INVERSE SUPERCELL MATRIX

  0.33333 0.00000 0.00000
  0.00000 0.33333 0.00000
  0.00000 0.00000 0.33333


 LABEL AT.NO.      COORDINATES (ANGSTROM)
     1    20     0.0000     0.0000     0.0000
     2    20     2.4238     2.4238     0.0000
     3    20    -2.4238    -2.4238     0.0000
     4    20     2.4238     0.0000     2.4238
     5    20     4.8476     2.4238     2.4238
     6    20    -0.0000    -2.4238     2.4238
     7    20    -2.4238     0.0000    -2.4238
     8    20    -0.0000     2.4238    -2.4238
     9    20    -4.8476    -2.4238    -2.4238
    10    20     0.0000     2.4238     2.4238
    11    20     2.4238     4.8476     2.4238
    12    20    -2.4238    -0.0000     2.4238
    13    20     2.4238     2.4238     4.8476
    14    20     4.8476     4.8476     4.8476
    15    20    -0.0000    -0.0000     4.8476
    16    20    -2.4238     2.4238    -0.0000
    17    20    -0.0000     4.8476    -0.0000
    18    20    -4.8476    -0.0000    -0.0000
    19    20     0.0000    -2.4238    -2.4238
    20    20     2.4238    -0.0000    -2.4238
    21    20    -2.4238    -4.8476    -2.4238
    22    20     2.4238    -2.4238    -0.0000
    23    20     4.8476    -0.0000    -0.0000
    24    20    -0.0000    -4.8476    -0.0000
    25    20    -2.4238    -2.4238    -4.8476
    26    20    -0.0000    -0.0000    -4.8476
    27    20    -4.8476    -4.8476    -4.8476
    28     8     2.4238     2.4238     2.4238
    29     8    -2.4238    -2.4238     2.4238
    30     8    -0.0000    -0.0000     2.4238
    31     8    -2.4238     2.4238    -2.4238
    32     8     7.2714     4.8476     4.8476
    33     8    -4.8476    -0.0000    -2.4238
    34     8    -0.0000     2.4238    -0.0000
    35     8    -4.8476    -2.4238    -0.0000
    36     8    -2.4238    -0.0000    -0.0000
    37     8     2.4238    -2.4238    -2.4238
    38     8     4.8476     7.2714     4.8476
    39     8    -0.0000    -4.8476    -2.4238
    40     8     4.8476     4.8476     7.2714
    41     8     7.2714     7.2714     7.2714
    42     8     2.4238     2.4238     7.2714
    43     8    -0.0000    -2.4238    -4.8476
    44     8     2.4238     7.2714     2.4238
    45     8    -2.4238     2.4238     2.4238
    46     8     2.4238    -0.0000    -0.0000
    47     8    -2.4238    -4.8476    -0.0000
    48     8    -0.0000    -2.4238    -0.0000
    49     8    -2.4238    -0.0000    -4.8476
    50     8     7.2714     2.4238     2.4238
    51     8     2.4238    -2.4238     2.4238
    52     8    -0.0000    -0.0000    -2.4238
    53     8     2.4238     2.4238    -2.4238
    54     8    -2.4238    -2.4238    -2.4238

 ***** 1296 SYMMOPS - TRANSLATORS IN ANGSTROM
 ***** MATRICES AND TRANSLATORS IN THE CARTESIAN REFERENCE FRAME

 ORDER   : ORDER OF THE OPERATOR

 TRANSLA : REAL TRANSLATION (WITHOUT ORIGIN SHIFT) IN CARTESIAN COORDINATES

 uvw/hkl : ORIENTATION OF THE OPERATOR IN CARTESIAN COORDINATES

 LOCATED : ORIGIN OF THE OPERATOR IN CARTESIAN COORDINATES

   NO.   1 INVERSE   1    ORDER   1        NO.   2 INVERSE   3    ORDER   4
    1.000   0.000   0.000     0.000         0.000  -1.000   0.000     0.000
    0.000   1.000   0.000     0.000         1.000   0.000   0.000     0.000
    0.000   0.000   1.000     0.000         0.000   0.000   1.000     0.000
             OPERATION E(   1)                       OPERATION C(   4)
 DETERMINANT 1.; ROTATION(DEG)   0.      DETERMINANT 1.; ROTATION(DEG)  90.
 TRANSLA (  0.000    0.000    0.000)     TRANSLA (  0.000    0.000    0.000)
 uvw/hkl (  0.000    0.000    0.000)     uvw/hkl (  0.000    0.000    2.000)
 LOCATED (  0.000    0.000    0.000)     LOCATED (  0.000   -0.000    0.000)

   NO.   3 INVERSE   2    ORDER   4        NO.   4 INVERSE   4    ORDER   2
    0.000   1.000   0.000     0.000        -1.000   0.000   0.000     0.000
   -1.000   0.000   0.000     0.000         0.000  -1.000   0.000     0.000
    0.000   0.000   1.000     0.000         0.000   0.000   1.000     0.000
             OPERATION C(   4)                       OPERATION C(   2)
 DETERMINANT 1.; ROTATION(DEG)  90.      DETERMINANT 1.; ROTATION(DEG) 180.
 TRANSLA (  0.000    0.000    0.000)     TRANSLA (  0.000    0.000    0.000)
 uvw/hkl (  0.000    0.000    2.000)     uvw/hkl (  0.000    0.000    4.000)
 LOCATED ( -0.000    0.000    0.000)     LOCATED ( -0.000   -0.000    0.000)

   NO.   5 INVERSE   5    ORDER   2        NO.   6 INVERSE   6    ORDER   2
    1.000   0.000   0.000     0.000         0.000  -1.000   0.000     0.000
    0.000  -1.000   0.000     0.000        -1.000   0.000   0.000     0.000
    0.000   0.000  -1.000     0.000         0.000   0.000  -1.000     0.000
             OPERATION C(   2)                       OPERATION C(   2)
 DETERMINANT 1.; ROTATION(DEG) 180.      DETERMINANT 1.; ROTATION(DEG) 180.
 TRANSLA (  0.000    0.000    0.000)     TRANSLA (  0.000    0.000    0.000)
 uvw/hkl (  4.000    0.000    0.000)     uvw/hkl (  2.000   -2.000    0.000)
 LOCATED (  0.000   -0.000   -0.000)     LOCATED ( -0.000    0.000   -0.000)

   NO.   7 INVERSE   7    ORDER   2        NO.   8 INVERSE   8    ORDER   2
   -1.000   0.000   0.000     0.000         0.000   1.000   0.000     0.000
    0.000   1.000   0.000     0.000         1.000   0.000   0.000     0.000
    0.000   0.000  -1.000     0.000         0.000   0.000  -1.000     0.000
             OPERATION C(   2)                       OPERATION C(   2)
 DETERMINANT 1.; ROTATION(DEG) 180.      DETERMINANT 1.; ROTATION(DEG) 180.
 TRANSLA (  0.000    0.000    0.000)     TRANSLA (  0.000    0.000    0.000)
 uvw/hkl ( -0.000   -4.000   -0.000)     uvw/hkl ( -2.000   -2.000   -0.000)
 LOCATED ( -0.000    0.000   -0.000)     LOCATED ( -0.000    0.000   -0.000)

   NO.   9 INVERSE  10    ORDER   3        NO.  10 INVERSE   9    ORDER   3
    0.000   0.000   1.000     0.000         0.000   1.000   0.000     0.000
    1.000   0.000   0.000     0.000         0.000   0.000   1.000     0.000
    0.000   1.000   0.000     0.000         1.000   0.000   0.000     0.000
             OPERATION C(   3)                       OPERATION C(   3)
 DETERMINANT 1.; ROTATION(DEG) 120.      DETERMINANT 1.; ROTATION(DEG) 120.
 TRANSLA (  0.000    0.000    0.000)     TRANSLA (  0.000    0.000    0.000)
 uvw/hkl (  1.000    1.000    1.000)     uvw/hkl (  1.000    1.000    1.000)
 LOCATED ( -0.000   -0.000    0.000)     LOCATED ( -0.000   -0.000    0.000)

   NO.  11 INVERSE  12    ORDER   3        NO.  12 INVERSE  11    ORDER   3
    0.000   0.000   1.000     0.000         0.000  -1.000   0.000     0.000
   -1.000   0.000   0.000     0.000         0.000   0.000  -1.000     0.000
    0.000  -1.000   0.000     0.000         1.000   0.000   0.000     0.000
             OPERATION C(   3)                       OPERATION C(   3)
 DETERMINANT 1.; ROTATION(DEG) 120.      DETERMINANT 1.; ROTATION(DEG) 120.
 TRANSLA (  0.000    0.000    0.000)     TRANSLA (  0.000    0.000    0.000)
 uvw/hkl (  1.000   -1.000    1.000)     uvw/hkl (  1.000   -1.000    1.000)
 LOCATED ( -0.000    0.000    0.000)     LOCATED (  0.000   -0.000    0.000)

   NO.  13 INVERSE  14    ORDER   3        NO.  14 INVERSE  13    ORDER   3
    0.000   0.000  -1.000     0.000         0.000   1.000   0.000     0.000
    1.000   0.000   0.000     0.000         0.000   0.000  -1.000     0.000
    0.000  -1.000   0.000     0.000        -1.000   0.000   0.000     0.000
             OPERATION C(   3)                       OPERATION C(   3)
 DETERMINANT 1.; ROTATION(DEG) 120.      DETERMINANT 1.; ROTATION(DEG) 120.
 TRANSLA (  0.000    0.000    0.000)     TRANSLA (  0.000    0.000    0.000)
 uvw/hkl ( -1.000   -1.000    1.000)     uvw/hkl ( -1.000   -1.000    1.000)
 LOCATED ( -0.000   -0.000    0.000)     LOCATED ( -0.000   -0.000    0.000)

   NO.  15 INVERSE  16    ORDER   3        NO.  16 INVERSE  15    ORDER   3
    0.000   0.000  -1.000     0.000         0.000  -1.000   0.000     0.000
   -1.000   0.000   0.000     0.000         0.000   0.000   1.000     0.000
    0.000   1.000   0.000     0.000        -1.000   0.000   0.000     0.000
             OPERATION C(   3)                       OPERATION C(   3)
 DETERMINANT 1.; ROTATION(DEG) 120.      DETERMINANT 1.; ROTATION(DEG) 120.
 TRANSLA (  0.000    0.000    0.000)     TRANSLA (  0.000    0.000    0.000)
 uvw/hkl ( -1.000    1.000    1.000)     uvw/hkl ( -1.000    1.000    1.000)
 LOCATED ( -0.000    0.000    0.000)     LOCATED (  0.000   -0.000    0.000)

   NO.  17 INVERSE  17    ORDER   2        NO.  18 INVERSE  19    ORDER   4
    0.000   0.000   1.000     0.000         1.000   0.000   0.000     0.000
    0.000  -1.000   0.000     0.000         0.000   0.000   1.000     0.000
    1.000   0.000   0.000     0.000         0.000  -1.000   0.000     0.000
             OPERATION C(   2)                       OPERATION C(   4)
 DETERMINANT 1.; ROTATION(DEG) 180.      DETERMINANT 1.; ROTATION(DEG)  90.
 TRANSLA (  0.000    0.000    0.000)     TRANSLA (  0.000    0.000    0.000)
 uvw/hkl (  2.000    0.000    2.000)     uvw/hkl (  2.000    0.000    0.000)
 LOCATED ( -0.000   -0.000    0.000)     LOCATED (  0.000   -0.000    0.000)

   NO.  19 INVERSE  18    ORDER   4        NO.  20 INVERSE  20    ORDER   2
    1.000   0.000   0.000     0.000        -1.000   0.000   0.000     0.000
    0.000   0.000  -1.000     0.000         0.000   0.000   1.000     0.000
    0.000   1.000   0.000     0.000         0.000   1.000   0.000     0.000
             OPERATION C(   4)                       OPERATION C(   2)
 DETERMINANT 1.; ROTATION(DEG)  90.      DETERMINANT 1.; ROTATION(DEG) 180.
 TRANSLA (  0.000    0.000    0.000)     TRANSLA (  0.000    0.000    0.000)
 uvw/hkl (  2.000    0.000    0.000)     uvw/hkl (  0.000    2.000    2.000)
 LOCATED (  0.000    0.000   -0.000)     LOCATED ( -0.000   -0.000    0.000)

   NO.  21 INVERSE  22    ORDER   4        NO.  22 INVERSE  21    ORDER   4
    0.000   0.000   1.000     0.000         0.000   0.000  -1.000     0.000
    0.000   1.000   0.000     0.000         0.000   1.000   0.000     0.000
   -1.000   0.000   0.000     0.000         1.000   0.000   0.000     0.000
             OPERATION C(   4)                       OPERATION C(   4)
 DETERMINANT 1.; ROTATION(DEG)  90.      DETERMINANT 1.; ROTATION(DEG)  90.
 TRANSLA (  0.000    0.000    0.000)     TRANSLA (  0.000    0.000    0.000)
 uvw/hkl ( -0.000   -2.000    0.000)     uvw/hkl (  0.000   -2.000   -0.000)
 LOCATED ( -0.000    0.000    0.000)     LOCATED (  0.000    0.000   -0.000)

   NO.  23 INVERSE  23    ORDER   2        NO.  24 INVERSE  24    ORDER   2
    0.000   0.000  -1.000     0.000        -1.000   0.000   0.000     0.000
    0.000  -1.000   0.000     0.000         0.000   0.000  -1.000     0.000
   -1.000   0.000   0.000     0.000         0.000  -1.000   0.000     0.000
             OPERATION C(   2)                       OPERATION C(   2)
 DETERMINANT 1.; ROTATION(DEG) 180.      DETERMINANT 1.; ROTATION(DEG) 180.
 TRANSLA (  0.000    0.000    0.000)     TRANSLA (  0.000    0.000    0.000)
 uvw/hkl ( -2.000    0.000    2.000)     uvw/hkl (  0.000   -2.000    2.000)
 LOCATED ( -0.000   -0.000    0.000)     LOCATED ( -0.000   -0.000    0.000)

   NO.  25 INVERSE  25    ORDER   2        NO.  26 INVERSE  27    ORDER   4
   -1.000   0.000   0.000     0.000         0.000   1.000   0.000     0.000
    0.000  -1.000   0.000     0.000        -1.000   0.000   0.000     0.000
    0.000   0.000  -1.000     0.000         0.000   0.000  -1.000     0.000
             OPERATION I(   2)                       OPERATION S(   4)
 DETERMINANT-1.; ROTATION(DEG) 180.      DETERMINANT-1.; ROTATION(DEG)  90.
 TRANSLA (  0.000    0.000    0.000)     TRANSLA (  0.000    0.000    0.000)
 uvw/hkl (  0.000    0.000    0.000)     uvw/hkl (  0.000    0.000    2.000)
 LOCATED (  0.000    0.000    0.000)     LOCATED (  0.000    0.000    0.000)

   NO.  27 INVERSE  26    ORDER   4        NO.  28 INVERSE  28    ORDER   2
    0.000  -1.000   0.000     0.000         1.000   0.000   0.000     0.000
    1.000   0.000   0.000     0.000         0.000   1.000   0.000     0.000
    0.000   0.000  -1.000     0.000         0.000   0.000  -1.000     0.000
             OPERATION S(   4)                       OPERATION M(   2)
 DETERMINANT-1.; ROTATION(DEG)  90.      DETERMINANT-1.; ROTATION(DEG)   0.
 TRANSLA (  0.000    0.000    0.000)     TRANSLA (  0.000    0.000    0.000)
 uvw/hkl (  0.000    0.000    2.000)     uvw/hkl (  0.000    0.000   -2.000)
 LOCATED (  0.000    0.000    0.000)     LOCATED (  0.000    0.000   -0.000)

   NO.  29 INVERSE  29    ORDER   2        NO.  30 INVERSE  30    ORDER   2
   -1.000   0.000   0.000     0.000         0.000   1.000   0.000     0.000
    0.000   1.000   0.000     0.000         1.000   0.000   0.000     0.000
    0.000   0.000   1.000     0.000         0.000   0.000   1.000     0.000
             OPERATION M(   2)                       OPERATION M(   2)
 DETERMINANT-1.; ROTATION(DEG)   0.      DETERMINANT-1.; ROTATION(DEG)   0.
 TRANSLA (  0.000    0.000    0.000)     TRANSLA (  0.000    0.000    0.000)
 uvw/hkl (  2.000   -0.000   -0.000)     uvw/hkl (  1.000   -1.000   -0.000)
 LOCATED ( -0.000    0.000    0.000)     LOCATED ( -0.000    0.000    0.000)

   NO.  31 INVERSE  31    ORDER   2        NO.  32 INVERSE  32    ORDER   2
    1.000   0.000   0.000     0.000         0.000  -1.000   0.000     0.000
    0.000  -1.000   0.000     0.000        -1.000   0.000   0.000     0.000
    0.000   0.000   1.000     0.000         0.000   0.000   1.000     0.000
             OPERATION M(   2)                       OPERATION M(   2)
 DETERMINANT-1.; ROTATION(DEG)   0.      DETERMINANT-1.; ROTATION(DEG)   0.
 TRANSLA (  0.000    0.000    0.000)     TRANSLA (  0.000    0.000    0.000)
 uvw/hkl (  0.000   -2.000    0.000)     uvw/hkl (  1.000    1.000   -0.000)
 LOCATED (  0.000   -0.000    0.000)     LOCATED ( -0.000    0.000    0.000)

   NO.  33 INVERSE  34    ORDER   6        NO.  34 INVERSE  33    ORDER   6
    0.000   0.000  -1.000     0.000         0.000  -1.000   0.000     0.000
   -1.000   0.000   0.000     0.000         0.000   0.000  -1.000     0.000
    0.000  -1.000   0.000     0.000        -1.000   0.000   0.000     0.000
             OPERATION S(   6)                       OPERATION S(   6)
 DETERMINANT-1.; ROTATION(DEG)  60.      DETERMINANT-1.; ROTATION(DEG)  60.
 TRANSLA (  0.000    0.000    0.000)     TRANSLA (  0.000    0.000    0.000)
 uvw/hkl ( -1.000    1.000    1.000)     uvw/hkl (  1.000   -1.000    1.000)
 LOCATED (  0.000    0.000    0.000)     LOCATED (  0.000   -0.000    0.000)

   NO.  35 INVERSE  36    ORDER   6        NO.  36 INVERSE  35    ORDER   6
    0.000   0.000  -1.000     0.000         0.000   1.000   0.000     0.000
    1.000   0.000   0.000     0.000         0.000   0.000   1.000     0.000
    0.000   1.000   0.000     0.000        -1.000   0.000   0.000     0.000
             OPERATION S(   6)                       OPERATION S(   6)
 DETERMINANT-1.; ROTATION(DEG)  60.      DETERMINANT-1.; ROTATION(DEG)  60.
 TRANSLA (  0.000    0.000    0.000)     TRANSLA (  0.000    0.000    0.000)
 uvw/hkl ( -1.000   -1.000    1.000)     uvw/hkl (  1.000    1.000    1.000)
 LOCATED (  0.000    0.000    0.000)     LOCATED (  0.000    0.000    0.000)

   NO.  37 INVERSE  38    ORDER   6        NO.  38 INVERSE  37    ORDER   6
    0.000   0.000   1.000     0.000         0.000  -1.000   0.000     0.000
   -1.000   0.000   0.000     0.000         0.000   0.000   1.000     0.000
    0.000   1.000   0.000     0.000         1.000   0.000   0.000     0.000
             OPERATION S(   6)                       OPERATION S(   6)
 DETERMINANT-1.; ROTATION(DEG)  60.      DETERMINANT-1.; ROTATION(DEG)  60.
 TRANSLA (  0.000    0.000    0.000)     TRANSLA (  0.000    0.000    0.000)
 uvw/hkl (  1.000   -1.000    1.000)     uvw/hkl ( -1.000    1.000    1.000)
 LOCATED (  0.000    0.000    0.000)     LOCATED (  0.000   -0.000    0.000)

   NO.  39 INVERSE  40    ORDER   6        NO.  40 INVERSE  39    ORDER   6
    0.000   0.000   1.000     0.000         0.000   1.000   0.000     0.000
    1.000   0.000   0.000     0.000         0.000   0.000  -1.000     0.000
    0.000  -1.000   0.000     0.000         1.000   0.000   0.000     0.000
             OPERATION S(   6)                       OPERATION S(   6)
 DETERMINANT-1.; ROTATION(DEG)  60.      DETERMINANT-1.; ROTATION(DEG)  60.
 TRANSLA (  0.000    0.000    0.000)     TRANSLA (  0.000    0.000    0.000)
 uvw/hkl (  1.000    1.000    1.000)     uvw/hkl ( -1.000   -1.000    1.000)
 LOCATED (  0.000    0.000    0.000)     LOCATED (  0.000    0.000    0.000)

   NO.  41 INVERSE  41    ORDER   2        NO.  42 INVERSE  43    ORDER   4
    0.000   0.000  -1.000     0.000        -1.000   0.000   0.000     0.000
    0.000   1.000   0.000     0.000         0.000   0.000  -1.000     0.000
   -1.000   0.000   0.000     0.000         0.000   1.000   0.000     0.000
             OPERATION M(   2)                       OPERATION S(   4)
 DETERMINANT-1.; ROTATION(DEG)   0.      DETERMINANT-1.; ROTATION(DEG)  90.
 TRANSLA (  0.000    0.000    0.000)     TRANSLA (  0.000    0.000    0.000)
 uvw/hkl (  1.000   -0.000    1.000)     uvw/hkl (  0.000   -2.000    2.000)
 LOCATED ( -0.000    0.000    0.000)     LOCATED ( -0.000    0.000    0.000)

   NO.  43 INVERSE  42    ORDER   4        NO.  44 INVERSE  44    ORDER   2
   -1.000   0.000   0.000     0.000         1.000   0.000   0.000     0.000
    0.000   0.000   1.000     0.000         0.000   0.000  -1.000     0.000
    0.000  -1.000   0.000     0.000         0.000  -1.000   0.000     0.000
             OPERATION S(   4)                       OPERATION M(   2)
 DETERMINANT-1.; ROTATION(DEG)  90.      DETERMINANT-1.; ROTATION(DEG)   0.
 TRANSLA (  0.000    0.000    0.000)     TRANSLA (  0.000    0.000    0.000)
 uvw/hkl (  0.000    2.000    2.000)     uvw/hkl (  0.000   -1.000   -1.000)
 LOCATED (  0.000    0.000    0.000)     LOCATED (  0.000   -0.000    0.000)

   NO.  45 INVERSE  46    ORDER   4        NO.  46 INVERSE  45    ORDER   4
    0.000   0.000  -1.000     0.000         0.000   0.000   1.000     0.000
    0.000  -1.000   0.000     0.000         0.000  -1.000   0.000     0.000
    1.000   0.000   0.000     0.000        -1.000   0.000   0.000     0.000
             OPERATION S(   4)                       OPERATION S(   4)
 DETERMINANT-1.; ROTATION(DEG)  90.      DETERMINANT-1.; ROTATION(DEG)  90.
 TRANSLA (  0.000    0.000    0.000)     TRANSLA (  0.000    0.000    0.000)
 uvw/hkl ( -2.000    0.000    2.000)     uvw/hkl (  2.000    0.000    2.000)
 LOCATED (  0.000   -0.000    0.000)     LOCATED (  0.000    0.000    0.000)

   NO.  47 INVERSE  47    ORDER   2        NO.  48 INVERSE  48    ORDER   2
    0.000   0.000   1.000     0.000         1.000   0.000   0.000     0.000
    0.000   1.000   0.000     0.000         0.000   0.000   1.000     0.000
    1.000   0.000   0.000     0.000         0.000   1.000   0.000     0.000
             OPERATION M(   2)                       OPERATION M(   2)
 DETERMINANT-1.; ROTATION(DEG)   0.      DETERMINANT-1.; ROTATION(DEG)   0.
 TRANSLA (  0.000    0.000    0.000)     TRANSLA (  0.000    0.000    0.000)
 uvw/hkl (  1.000   -0.000   -1.000)     uvw/hkl (  0.000   -1.000    1.000)
 LOCATED ( -0.000    0.000    0.000)     LOCATED (  0.000   -0.000    0.000)

   NO.  49 INVERSE  97    ORDER   1        NO.  50 INVERSE 723    ORDER   4
    1.000   0.000   0.000     2.424         0.000  -1.000   0.000     2.424
    0.000   1.000   0.000     2.424         1.000   0.000   0.000     2.424
    0.000   0.000   1.000     0.000         0.000   0.000   1.000     0.000
             OPERATION E(   1)                       OPERATION C(   4)
 DETERMINANT 1.; ROTATION(DEG)   0.      DETERMINANT 1.; ROTATION(DEG)  90.
 TRANSLA (  2.424    2.424    0.000)     TRANSLA (  0.000    0.000    0.000)
 uvw/hkl (  0.000    0.000    0.000)     uvw/hkl (  0.000    0.000    2.000)
 LOCATED (  0.000    0.000    0.000)     LOCATED (  0.000    2.424    0.000)

   NO.  51 INVERSE1010    ORDER   4        NO.  52 INVERSE  52    ORDER   2
    0.000   1.000   0.000     2.424        -1.000   0.000   0.000     2.424
   -1.000   0.000   0.000     2.424         0.000  -1.000   0.000     2.424
    0.000   0.000   1.000     0.000         0.000   0.000   1.000     0.000
             OPERATION C(   4)                       OPERATION C(   2)
 DETERMINANT 1.; ROTATION(DEG)  90.      DETERMINANT 1.; ROTATION(DEG) 180.
 TRANSLA (  0.000    0.000    0.000)     TRANSLA (  0.000    0.000    0.000)
 uvw/hkl (  0.000    0.000    2.000)     uvw/hkl (  0.000    0.000    4.000)
 LOCATED (  2.424    0.000    0.000)     LOCATED (  1.212    1.212    0.000)

   NO.  53 INVERSE 725    ORDER   2        NO.  54 INVERSE  54    ORDER   2
    1.000   0.000   0.000     2.424         0.000  -1.000   0.000     2.424
    0.000  -1.000   0.000     2.424        -1.000   0.000   0.000     2.424
    0.000   0.000  -1.000     0.000         0.000   0.000  -1.000     0.000
             OPERATION C(   2)                       OPERATION C(   2)
 DETERMINANT 1.; ROTATION(DEG) 180.      DETERMINANT 1.; ROTATION(DEG) 180.
 TRANSLA (  2.424    0.000    0.000)     TRANSLA (  0.000    0.000    0.000)
 uvw/hkl (  4.000    0.000    0.000)     uvw/hkl (  2.000   -2.000    0.000)
 LOCATED (  0.000    1.212    0.000)     LOCATED (  2.424    0.000    0.000)

   NO.  55 INVERSE1015    ORDER   2        NO.  56 INVERSE 104    ORDER   2
   -1.000   0.000   0.000     2.424         0.000   1.000   0.000     2.424
    0.000   1.000   0.000     2.424         1.000   0.000   0.000     2.424
    0.000   0.000  -1.000     0.000         0.000   0.000  -1.000     0.000
             OPERATION C(   2)                       OPERATION C(   2)
 DETERMINANT 1.; ROTATION(DEG) 180.      DETERMINANT 1.; ROTATION(DEG) 180.
 TRANSLA (  0.000    2.424    0.000)     TRANSLA (  2.424    2.424    0.000)
 uvw/hkl ( -0.000   -4.000   -0.000)     uvw/hkl ( -2.000   -2.000   -0.000)
 LOCATED (  1.212    0.000    0.000)     LOCATED ( -0.000    0.000   -0.000)

   NO.  57 INVERSE 298    ORDER   3        NO.  58 INVERSE 873    ORDER   3
    0.000   0.000   1.000     2.424         0.000   1.000   0.000     2.424
    1.000   0.000   0.000     2.424         0.000   0.000   1.000     2.424
    0.000   1.000   0.000     0.000         1.000   0.000   0.000     0.000
             OPERATION C(   3)                       OPERATION C(   3)
 DETERMINANT 1.; ROTATION(DEG) 120.      DETERMINANT 1.; ROTATION(DEG) 120.
 TRANSLA (  1.616    1.616    1.616)     TRANSLA (  1.616    1.616    1.616)
 uvw/hkl (  1.000    1.000    1.000)     uvw/hkl (  1.000    1.000    1.000)
 LOCATED (  0.808    1.616    0.000)     LOCATED (  1.616    0.808    0.000)

   NO.  59 INVERSE 924    ORDER   3        NO.  60 INVERSE 443    ORDER   3
    0.000   0.000   1.000     2.424         0.000  -1.000   0.000     2.424
   -1.000   0.000   0.000     2.424         0.000   0.000  -1.000     2.424
    0.000  -1.000   0.000     0.000         1.000   0.000   0.000     0.000
             OPERATION C(   3)                       OPERATION C(   3)
 DETERMINANT 1.; ROTATION(DEG) 120.      DETERMINANT 1.; ROTATION(DEG) 120.
 TRANSLA (  0.000    0.000    0.000)     TRANSLA (  0.000    0.000    0.000)
 uvw/hkl (  1.000   -1.000    1.000)     uvw/hkl (  1.000   -1.000    1.000)
 LOCATED (  2.424    0.000    0.000)     LOCATED (  0.000    2.424    0.000)

   NO.  61 INVERSE 542    ORDER   3        NO.  62 INVERSE 253    ORDER   3
    0.000   0.000  -1.000     2.424         0.000   1.000   0.000     2.424
    1.000   0.000   0.000     2.424         0.000   0.000  -1.000     2.424
    0.000  -1.000   0.000     0.000        -1.000   0.000   0.000     0.000
             OPERATION C(   3)                       OPERATION C(   3)
 DETERMINANT 1.; ROTATION(DEG) 120.      DETERMINANT 1.; ROTATION(DEG) 120.
 TRANSLA (  1.616    1.616   -1.616)     TRANSLA (  1.616    1.616   -1.616)
 uvw/hkl ( -1.000   -1.000    1.000)     uvw/hkl ( -1.000   -1.000    1.000)
 LOCATED (  0.808    1.616    0.000)     LOCATED (  1.616    0.808    0.000)

   NO.  63 INVERSE 160    ORDER   3        NO.  64 INVERSE 351    ORDER   3
    0.000   0.000  -1.000     2.424         0.000  -1.000   0.000     2.424
   -1.000   0.000   0.000     2.424         0.000   0.000   1.000     2.424
    0.000   1.000   0.000     0.000        -1.000   0.000   0.000     0.000
             OPERATION C(   3)                       OPERATION C(   3)
 DETERMINANT 1.; ROTATION(DEG) 120.      DETERMINANT 1.; ROTATION(DEG) 120.
 TRANSLA (  0.000    0.000    0.000)     TRANSLA (  0.000    0.000    0.000)
 uvw/hkl ( -1.000    1.000    1.000)     uvw/hkl ( -1.000    1.000    1.000)
 LOCATED (  2.424    0.000    0.000)     LOCATED (  0.000    2.424    0.000)

   NO.  65 INVERSE 353    ORDER   2        NO.  66 INVERSE 307    ORDER   4
    0.000   0.000   1.000     2.424         1.000   0.000   0.000     2.424
    0.000  -1.000   0.000     2.424         0.000   0.000   1.000     2.424
    1.000   0.000   0.000     0.000         0.000  -1.000   0.000     0.000
             OPERATION C(   2)                       OPERATION C(   4)
 DETERMINANT 1.; ROTATION(DEG) 180.      DETERMINANT 1.; ROTATION(DEG)  90.
 TRANSLA (  1.212    0.000    1.212)     TRANSLA (  2.424    0.000    0.000)
 uvw/hkl (  2.000    0.000    2.000)     uvw/hkl (  2.000    0.000    0.000)
 LOCATED (  1.212    1.212    0.000)     LOCATED (  0.000    1.212   -1.212)

   NO.  67 INVERSE 546    ORDER   4        NO.  68 INVERSE 932    ORDER   2
    1.000   0.000   0.000     2.424        -1.000   0.000   0.000     2.424
    0.000   0.000  -1.000     2.424         0.000   0.000   1.000     2.424
    0.000   1.000   0.000     0.000         0.000   1.000   0.000     0.000
             OPERATION C(   4)                       OPERATION C(   2)
 DETERMINANT 1.; ROTATION(DEG)  90.      DETERMINANT 1.; ROTATION(DEG) 180.
 TRANSLA (  2.424    0.000    0.000)     TRANSLA (  0.000    1.212    1.212)
 uvw/hkl (  2.000    0.000    0.000)     uvw/hkl (  0.000    2.000    2.000)
 LOCATED (  0.000    1.212    1.212)     LOCATED (  1.212    1.212    0.000)

   NO.  69 INVERSE 886    ORDER   4        NO.  70 INVERSE 261    ORDER   4
    0.000   0.000   1.000     2.424         0.000   0.000  -1.000     2.424
    0.000   1.000   0.000     2.424         0.000   1.000   0.000     2.424
   -1.000   0.000   0.000     0.000         1.000   0.000   0.000     0.000
             OPERATION C(   4)                       OPERATION C(   4)
 DETERMINANT 1.; ROTATION(DEG)  90.      DETERMINANT 1.; ROTATION(DEG)  90.
 TRANSLA (  0.000    2.424    0.000)     TRANSLA (  0.000    2.424    0.000)
 uvw/hkl ( -0.000   -2.000    0.000)     uvw/hkl (  0.000   -2.000   -0.000)
 LOCATED (  1.212    0.000   -1.212)     LOCATED (  1.212    0.000    1.212)

   NO.  71 INVERSE 455    ORDER   2        NO.  72 INVERSE 168    ORDER   2
    0.000   0.000  -1.000     2.424        -1.000   0.000   0.000     2.424
    0.000  -1.000   0.000     2.424         0.000   0.000  -1.000     2.424
   -1.000   0.000   0.000     0.000         0.000  -1.000   0.000     0.000
             OPERATION C(   2)                       OPERATION C(   2)
 DETERMINANT 1.; ROTATION(DEG) 180.      DETERMINANT 1.; ROTATION(DEG) 180.
 TRANSLA (  1.212    0.000   -1.212)     TRANSLA (  0.000    1.212   -1.212)
 uvw/hkl ( -2.000    0.000    2.000)     uvw/hkl (  0.000   -2.000    2.000)
 LOCATED (  1.212    1.212    0.000)     LOCATED (  1.212    1.212    0.000)

   NO.  73 INVERSE  73    ORDER   2        NO.  74 INVERSE1035    ORDER   4
   -1.000   0.000   0.000     2.424         0.000   1.000   0.000     2.424
    0.000  -1.000   0.000     2.424        -1.000   0.000   0.000     2.424
    0.000   0.000  -1.000     0.000         0.000   0.000  -1.000     0.000
             OPERATION I(   2)                       OPERATION S(   4)
 DETERMINANT-1.; ROTATION(DEG) 180.      DETERMINANT-1.; ROTATION(DEG)  90.
 TRANSLA (  0.000    0.000    0.000)     TRANSLA (  0.000    0.000    0.000)
 uvw/hkl (  0.000    0.000    0.000)     uvw/hkl (  0.000    0.000    2.000)
 LOCATED (  1.212    1.212    0.000)     LOCATED (  2.424    0.000    0.000)

   NO.  75 INVERSE 746    ORDER   4        NO.  76 INVERSE 124    ORDER   2
    0.000  -1.000   0.000     2.424         1.000   0.000   0.000     2.424
    1.000   0.000   0.000     2.424         0.000   1.000   0.000     2.424
    0.000   0.000  -1.000     0.000         0.000   0.000  -1.000     0.000
             OPERATION S(   4)                       OPERATION M(   2)
 DETERMINANT-1.; ROTATION(DEG)  90.      DETERMINANT-1.; ROTATION(DEG)   0.
 TRANSLA (  0.000    0.000    0.000)     TRANSLA (  2.424    2.424    0.000)
 uvw/hkl (  0.000    0.000    2.000)     uvw/hkl (  0.000    0.000   -2.000)
 LOCATED (  0.000    2.424    0.000)     LOCATED (  0.000    0.000   -0.000)

   NO.  77 INVERSE1037    ORDER   2        NO.  78 INVERSE 126    ORDER   2
   -1.000   0.000   0.000     2.424         0.000   1.000   0.000     2.424
    0.000   1.000   0.000     2.424         1.000   0.000   0.000     2.424
    0.000   0.000   1.000     0.000         0.000   0.000   1.000     0.000
             OPERATION M(   2)                       OPERATION M(   2)
 DETERMINANT-1.; ROTATION(DEG)   0.      DETERMINANT-1.; ROTATION(DEG)   0.
 TRANSLA (  0.000    2.424    0.000)     TRANSLA (  2.424    2.424    0.000)
 uvw/hkl (  2.000   -0.000   -0.000)     uvw/hkl (  1.000   -1.000   -0.000)
 LOCATED (  1.212    0.000    0.000)     LOCATED ( -0.000    0.000    0.000)

   NO.  79 INVERSE 751    ORDER   2        NO.  80 INVERSE  80    ORDER   2
    1.000   0.000   0.000     2.424         0.000  -1.000   0.000     2.424
    0.000  -1.000   0.000     2.424        -1.000   0.000   0.000     2.424
    0.000   0.000   1.000     0.000         0.000   0.000   1.000     0.000
             OPERATION M(   2)                       OPERATION M(   2)
 DETERMINANT-1.; ROTATION(DEG)   0.      DETERMINANT-1.; ROTATION(DEG)   0.
 TRANSLA (  2.424    0.000    0.000)     TRANSLA (  0.000    0.000    0.000)
 uvw/hkl (  0.000   -2.000    0.000)     uvw/hkl (  1.000    1.000   -0.000)
 LOCATED (  0.000    1.212    0.000)     LOCATED (  2.424    0.000    0.000)

   NO.  81 INVERSE 178    ORDER   6        NO.  82 INVERSE 465    ORDER   6
    0.000   0.000  -1.000     2.424         0.000  -1.000   0.000     2.424
   -1.000   0.000   0.000     2.424         0.000   0.000  -1.000     2.424
    0.000  -1.000   0.000     0.000        -1.000   0.000   0.000     0.000
             OPERATION S(   6)                       OPERATION S(   6)
 DETERMINANT-1.; ROTATION(DEG)  60.      DETERMINANT-1.; ROTATION(DEG)  60.
 TRANSLA (  0.000    0.000    0.000)     TRANSLA (  0.000    0.000    0.000)
 uvw/hkl ( -1.000    1.000    1.000)     uvw/hkl (  1.000   -1.000    1.000)
 LOCATED (  2.424    0.000    0.000)     LOCATED (  0.000    2.424    0.000)

   NO.  83 INVERSE 564    ORDER   6        NO.  84 INVERSE 899    ORDER   6
    0.000   0.000  -1.000     2.424         0.000   1.000   0.000     2.424
    1.000   0.000   0.000     2.424         0.000   0.000   1.000     2.424
    0.000   1.000   0.000     0.000        -1.000   0.000   0.000     0.000
             OPERATION S(   6)                       OPERATION S(   6)
 DETERMINANT-1.; ROTATION(DEG)  60.      DETERMINANT-1.; ROTATION(DEG)  60.
 TRANSLA (  0.000    0.000    0.000)     TRANSLA (  0.000    0.000    0.000)
 uvw/hkl ( -1.000   -1.000    1.000)     uvw/hkl (  1.000    1.000    1.000)
 LOCATED (  2.424    4.848    0.000)     LOCATED (  4.848    2.424    0.000)

   NO.  85 INVERSE 950    ORDER   6        NO.  86 INVERSE 373    ORDER   6
    0.000   0.000   1.000     2.424         0.000  -1.000   0.000     2.424
   -1.000   0.000   0.000     2.424         0.000   0.000   1.000     2.424
    0.000   1.000   0.000     0.000         1.000   0.000   0.000     0.000
             OPERATION S(   6)                       OPERATION S(   6)
 DETERMINANT-1.; ROTATION(DEG)  60.      DETERMINANT-1.; ROTATION(DEG)  60.
 TRANSLA (  0.000    0.000    0.000)     TRANSLA (  0.000    0.000    0.000)
 uvw/hkl (  1.000   -1.000    1.000)     uvw/hkl ( -1.000    1.000    1.000)
 LOCATED (  2.424    0.000    0.000)     LOCATED (  0.000    2.424    0.000)

   NO.  87 INVERSE 328    ORDER   6        NO.  88 INVERSE 279    ORDER   6
    0.000   0.000   1.000     2.424         0.000   1.000   0.000     2.424
    1.000   0.000   0.000     2.424         0.000   0.000  -1.000     2.424
    0.000  -1.000   0.000     0.000         1.000   0.000   0.000     0.000
             OPERATION S(   6)                       OPERATION S(   6)
 DETERMINANT-1.; ROTATION(DEG)  60.      DETERMINANT-1.; ROTATION(DEG)  60.
 TRANSLA (  0.000    0.000    0.000)     TRANSLA (  0.000    0.000    0.000)
 uvw/hkl (  1.000    1.000    1.000)     uvw/hkl ( -1.000   -1.000    1.000)
 LOCATED (  2.424    4.848    0.000)     LOCATED (  4.848    2.424    0.000)

   NO.  89 INVERSE 281    ORDER   2        NO.  90 INVERSE 187    ORDER   4
    0.000   0.000  -1.000     2.424        -1.000   0.000   0.000     2.424
    0.000   1.000   0.000     2.424         0.000   0.000  -1.000     2.424
   -1.000   0.000   0.000     0.000         0.000   1.000   0.000     0.000
             OPERATION M(   2)                       OPERATION S(   4)
 DETERMINANT-1.; ROTATION(DEG)   0.      DETERMINANT-1.; ROTATION(DEG)  90.
 TRANSLA (  1.212    2.424   -1.212)     TRANSLA (  0.000    0.000    0.000)
 uvw/hkl (  1.000   -0.000    1.000)     uvw/hkl (  0.000   -2.000    2.000)
 LOCATED (  1.212    0.000    0.000)     LOCATED (  1.212    2.424    0.000)

   NO.  91 INVERSE 954    ORDER   4        NO.  92 INVERSE 572    ORDER   2
   -1.000   0.000   0.000     2.424         1.000   0.000   0.000     2.424
    0.000   0.000   1.000     2.424         0.000   0.000  -1.000     2.424
    0.000  -1.000   0.000     0.000         0.000  -1.000   0.000     0.000
             OPERATION S(   4)                       OPERATION M(   2)
 DETERMINANT-1.; ROTATION(DEG)  90.      DETERMINANT-1.; ROTATION(DEG)   0.
 TRANSLA (  0.000    0.000    0.000)     TRANSLA (  2.424    1.212   -1.212)
 uvw/hkl (  0.000    2.000    2.000)     uvw/hkl (  0.000   -1.000   -1.000)
 LOCATED (  1.212    2.424    0.000)     LOCATED (  0.000    1.212    0.000)

   NO.  93 INVERSE 478    ORDER   4        NO.  94 INVERSE 381    ORDER   4
    0.000   0.000  -1.000     2.424         0.000   0.000   1.000     2.424
    0.000  -1.000   0.000     2.424         0.000  -1.000   0.000     2.424
    1.000   0.000   0.000     0.000        -1.000   0.000   0.000     0.000
             OPERATION S(   4)                       OPERATION S(   4)
 DETERMINANT-1.; ROTATION(DEG)  90.      DETERMINANT-1.; ROTATION(DEG)  90.
 TRANSLA (  0.000    0.000    0.000)     TRANSLA (  0.000    0.000    0.000)
 uvw/hkl ( -2.000    0.000    2.000)     uvw/hkl (  2.000    0.000    2.000)
 LOCATED (  2.424    1.212    0.000)     LOCATED (  2.424    1.212    0.000)

   NO.  95 INVERSE 911    ORDER   2        NO.  96 INVERSE 336    ORDER   2
    0.000   0.000   1.000     2.424         1.000   0.000   0.000     2.424
    0.000   1.000   0.000     2.424         0.000   0.000   1.000     2.424
    1.000   0.000   0.000     0.000         0.000   1.000   0.000     0.000
             OPERATION M(   2)                       OPERATION M(   2)
 DETERMINANT-1.; ROTATION(DEG)   0.      DETERMINANT-1.; ROTATION(DEG)   0.
 TRANSLA (  1.212    2.424    1.212)     TRANSLA (  2.424    1.212    1.212)
 uvw/hkl (  1.000   -0.000   -1.000)     uvw/hkl (  0.000   -1.000    1.000)
 LOCATED (  1.212    0.000    0.000)     LOCATED (  0.000    1.212    0.000)

   NO.  97 INVERSE  49    ORDER   1        NO.  98 INVERSE1011    ORDER   4
    1.000   0.000   0.000    -2.424         0.000  -1.000   0.000    -2.424
    0.000   1.000   0.000    -2.424         1.000   0.000   0.000    -2.424
    0.000   0.000   1.000     0.000         0.000   0.000   1.000     0.000
             OPERATION E(   1)                       OPERATION C(   4)
 DETERMINANT 1.; ROTATION(DEG)   0.      DETERMINANT 1.; ROTATION(DEG)  90.
 TRANSLA ( -2.424   -2.424    0.000)     TRANSLA (  0.000    0.000    0.000)
 uvw/hkl (  0.000    0.000    0.000)     uvw/hkl (  0.000    0.000    2.000)
 LOCATED (  0.000    0.000    0.000)     LOCATED (  0.000   -2.424    0.000)

   NO.  99 INVERSE 722    ORDER   4        NO. 100 INVERSE 100    ORDER   2
    0.000   1.000   0.000    -2.424        -1.000   0.000   0.000    -2.424
   -1.000   0.000   0.000    -2.424         0.000  -1.000   0.000    -2.424
    0.000   0.000   1.000     0.000         0.000   0.000   1.000     0.000
             OPERATION C(   4)                       OPERATION C(   2)
 DETERMINANT 1.; ROTATION(DEG)  90.      DETERMINANT 1.; ROTATION(DEG) 180.
 TRANSLA (  0.000    0.000    0.000)     TRANSLA (  0.000    0.000    0.000)
 uvw/hkl (  0.000    0.000    2.000)     uvw/hkl (  0.000    0.000    4.000)
 LOCATED ( -2.424    0.000    0.000)     LOCATED ( -1.212   -1.212    0.000)

   NO. 101 INVERSE1013    ORDER   2        NO. 102 INVERSE 102    ORDER   2
    1.000   0.000   0.000    -2.424         0.000  -1.000   0.000    -2.424
    0.000  -1.000   0.000    -2.424        -1.000   0.000   0.000    -2.424
    0.000   0.000  -1.000     0.000         0.000   0.000  -1.000     0.000
             OPERATION C(   2)                       OPERATION C(   2)
 DETERMINANT 1.; ROTATION(DEG) 180.      DETERMINANT 1.; ROTATION(DEG) 180.
 TRANSLA ( -2.424    0.000    0.000)     TRANSLA (  0.000    0.000    0.000)
 uvw/hkl (  4.000    0.000    0.000)     uvw/hkl (  2.000   -2.000    0.000)
 LOCATED (  0.000   -1.212   -0.000)     LOCATED ( -2.424    0.000   -0.000)

   NO. 103 INVERSE 727    ORDER   2        NO. 104 INVERSE  56    ORDER   2
   -1.000   0.000   0.000    -2.424         0.000   1.000   0.000    -2.424
    0.000   1.000   0.000    -2.424         1.000   0.000   0.000    -2.424
    0.000   0.000  -1.000     0.000         0.000   0.000  -1.000     0.000
             OPERATION C(   2)                       OPERATION C(   2)
 DETERMINANT 1.; ROTATION(DEG) 180.      DETERMINANT 1.; ROTATION(DEG) 180.
 TRANSLA (  0.000   -2.424    0.000)     TRANSLA ( -2.424   -2.424    0.000)
 uvw/hkl ( -0.000   -4.000   -0.000)     uvw/hkl ( -2.000   -2.000   -0.000)
 LOCATED ( -1.212    0.000   -0.000)     LOCATED ( -0.000    0.000   -0.000)

   NO. 105 INVERSE 154    ORDER   3        NO. 106 INVERSE 441    ORDER   3
    0.000   0.000   1.000    -2.424         0.000   1.000   0.000    -2.424
    1.000   0.000   0.000    -2.424         0.000   0.000   1.000    -2.424
    0.000   1.000   0.000     0.000         1.000   0.000   0.000     0.000
             OPERATION C(   3)                       OPERATION C(   3)
 DETERMINANT 1.; ROTATION(DEG) 120.      DETERMINANT 1.; ROTATION(DEG) 120.
 TRANSLA ( -1.616   -1.616   -1.616)     TRANSLA ( -1.616   -1.616   -1.616)
 uvw/hkl (  1.000    1.000    1.000)     uvw/hkl (  1.000    1.000    1.000)
 LOCATED ( -0.808   -1.616    0.000)     LOCATED ( -1.616   -0.808    0.000)

   NO. 107 INVERSE 540    ORDER   3        NO. 108 INVERSE 875    ORDER   3
    0.000   0.000   1.000    -2.424         0.000  -1.000   0.000    -2.424
   -1.000   0.000   0.000    -2.424         0.000   0.000  -1.000    -2.424
    0.000  -1.000   0.000     0.000         1.000   0.000   0.000     0.000
             OPERATION C(   3)                       OPERATION C(   3)
 DETERMINANT 1.; ROTATION(DEG) 120.      DETERMINANT 1.; ROTATION(DEG) 120.
 TRANSLA (  0.000    0.000    0.000)     TRANSLA (  0.000    0.000    0.000)
 uvw/hkl (  1.000   -1.000    1.000)     uvw/hkl (  1.000   -1.000    1.000)
 LOCATED ( -2.424    0.000    0.000)     LOCATED (  0.000   -2.424    0.000)

   NO. 109 INVERSE 926    ORDER   3        NO. 110 INVERSE 349    ORDER   3
    0.000   0.000  -1.000    -2.424         0.000   1.000   0.000    -2.424
    1.000   0.000   0.000    -2.424         0.000   0.000  -1.000    -2.424
    0.000  -1.000   0.000     0.000        -1.000   0.000   0.000     0.000
             OPERATION C(   3)                       OPERATION C(   3)
 DETERMINANT 1.; ROTATION(DEG) 120.      DETERMINANT 1.; ROTATION(DEG) 120.
 TRANSLA ( -1.616   -1.616    1.616)     TRANSLA ( -1.616   -1.616    1.616)
 uvw/hkl ( -1.000   -1.000    1.000)     uvw/hkl ( -1.000   -1.000    1.000)
 LOCATED ( -0.808   -1.616    0.000)     LOCATED ( -1.616   -0.808    0.000)

   NO. 111 INVERSE 304    ORDER   3        NO. 112 INVERSE 255    ORDER   3
    0.000   0.000  -1.000    -2.424         0.000  -1.000   0.000    -2.424
   -1.000   0.000   0.000    -2.424         0.000   0.000   1.000    -2.424
    0.000   1.000   0.000     0.000        -1.000   0.000   0.000     0.000
             OPERATION C(   3)                       OPERATION C(   3)
 DETERMINANT 1.; ROTATION(DEG) 120.      DETERMINANT 1.; ROTATION(DEG) 120.
 TRANSLA (  0.000    0.000    0.000)     TRANSLA (  0.000    0.000    0.000)
 uvw/hkl ( -1.000    1.000    1.000)     uvw/hkl ( -1.000    1.000    1.000)
 LOCATED ( -2.424    0.000    0.000)     LOCATED (  0.000   -2.424    0.000)

   NO. 113 INVERSE 257    ORDER   2        NO. 114 INVERSE 163    ORDER   4
    0.000   0.000   1.000    -2.424         1.000   0.000   0.000    -2.424
    0.000  -1.000   0.000    -2.424         0.000   0.000   1.000    -2.424
    1.000   0.000   0.000     0.000         0.000  -1.000   0.000     0.000
             OPERATION C(   2)                       OPERATION C(   4)
 DETERMINANT 1.; ROTATION(DEG) 180.      DETERMINANT 1.; ROTATION(DEG)  90.
 TRANSLA ( -1.212    0.000   -1.212)     TRANSLA ( -2.424    0.000    0.000)
 uvw/hkl (  2.000    0.000    2.000)     uvw/hkl (  2.000    0.000    0.000)
 LOCATED ( -1.212   -1.212    0.000)     LOCATED (  0.000   -1.212    1.212)

   NO. 115 INVERSE 930    ORDER   4        NO. 116 INVERSE 548    ORDER   2
    1.000   0.000   0.000    -2.424        -1.000   0.000   0.000    -2.424
    0.000   0.000  -1.000    -2.424         0.000   0.000   1.000    -2.424
    0.000   1.000   0.000     0.000         0.000   1.000   0.000     0.000
             OPERATION C(   4)                       OPERATION C(   2)
 DETERMINANT 1.; ROTATION(DEG)  90.      DETERMINANT 1.; ROTATION(DEG) 180.
 TRANSLA ( -2.424    0.000    0.000)     TRANSLA (  0.000   -1.212   -1.212)
 uvw/hkl (  2.000    0.000    0.000)     uvw/hkl (  0.000    2.000    2.000)
 LOCATED (  0.000   -1.212   -1.212)     LOCATED ( -1.212   -1.212    0.000)

   NO. 117 INVERSE 454    ORDER   4        NO. 118 INVERSE 357    ORDER   4
    0.000   0.000   1.000    -2.424         0.000   0.000  -1.000    -2.424
    0.000   1.000   0.000    -2.424         0.000   1.000   0.000    -2.424
   -1.000   0.000   0.000     0.000         1.000   0.000   0.000     0.000
             OPERATION C(   4)                       OPERATION C(   4)
 DETERMINANT 1.; ROTATION(DEG)  90.      DETERMINANT 1.; ROTATION(DEG)  90.
 TRANSLA (  0.000   -2.424    0.000)     TRANSLA (  0.000   -2.424    0.000)
 uvw/hkl ( -0.000   -2.000    0.000)     uvw/hkl (  0.000   -2.000   -0.000)
 LOCATED ( -1.212    0.000    1.212)     LOCATED ( -1.212    0.000   -1.212)

   NO. 119 INVERSE 887    ORDER   2        NO. 120 INVERSE 312    ORDER   2
    0.000   0.000  -1.000    -2.424        -1.000   0.000   0.000    -2.424
    0.000  -1.000   0.000    -2.424         0.000   0.000  -1.000    -2.424
   -1.000   0.000   0.000     0.000         0.000  -1.000   0.000     0.000
             OPERATION C(   2)                       OPERATION C(   2)
 DETERMINANT 1.; ROTATION(DEG) 180.      DETERMINANT 1.; ROTATION(DEG) 180.
 TRANSLA ( -1.212    0.000    1.212)     TRANSLA (  0.000   -1.212    1.212)
 uvw/hkl ( -2.000    0.000    2.000)     uvw/hkl (  0.000   -2.000    2.000)
 LOCATED ( -1.212   -1.212    0.000)     LOCATED ( -1.212   -1.212    0.000)

   NO. 121 INVERSE 121    ORDER   2        NO. 122 INVERSE 747    ORDER   4
   -1.000   0.000   0.000    -2.424         0.000   1.000   0.000    -2.424
    0.000  -1.000   0.000    -2.424        -1.000   0.000   0.000    -2.424
    0.000   0.000  -1.000     0.000         0.000   0.000  -1.000     0.000
             OPERATION I(   2)                       OPERATION S(   4)
 DETERMINANT-1.; ROTATION(DEG) 180.      DETERMINANT-1.; ROTATION(DEG)  90.
 TRANSLA (  0.000    0.000    0.000)     TRANSLA (  0.000    0.000    0.000)
 uvw/hkl (  0.000    0.000    0.000)     uvw/hkl (  0.000    0.000    2.000)
 LOCATED ( -1.212   -1.212    0.000)     LOCATED ( -2.424    0.000    0.000)

   NO. 123 INVERSE1034    ORDER   4        NO. 124 INVERSE  76    ORDER   2
    0.000  -1.000   0.000    -2.424         1.000   0.000   0.000    -2.424
    1.000   0.000   0.000    -2.424         0.000   1.000   0.000    -2.424
    0.000   0.000  -1.000     0.000         0.000   0.000  -1.000     0.000
             OPERATION S(   4)                       OPERATION M(   2)
 DETERMINANT-1.; ROTATION(DEG)  90.      DETERMINANT-1.; ROTATION(DEG)   0.
 TRANSLA (  0.000    0.000    0.000)     TRANSLA ( -2.424   -2.424    0.000)
 uvw/hkl (  0.000    0.000    2.000)     uvw/hkl (  0.000    0.000   -2.000)
 LOCATED (  0.000   -2.424    0.000)     LOCATED (  0.000    0.000   -0.000)

   NO. 125 INVERSE 749    ORDER   2        NO. 126 INVERSE  78    ORDER   2
   -1.000   0.000   0.000    -2.424         0.000   1.000   0.000    -2.424
    0.000   1.000   0.000    -2.424         1.000   0.000   0.000    -2.424
    0.000   0.000   1.000     0.000         0.000   0.000   1.000     0.000
             OPERATION M(   2)                       OPERATION M(   2)
 DETERMINANT-1.; ROTATION(DEG)   0.      DETERMINANT-1.; ROTATION(DEG)   0.
 TRANSLA (  0.000   -2.424    0.000)     TRANSLA ( -2.424   -2.424    0.000)
 uvw/hkl (  2.000   -0.000   -0.000)     uvw/hkl (  1.000   -1.000   -0.000)
 LOCATED ( -1.212    0.000    0.000)     LOCATED ( -0.000    0.000    0.000)

   NO. 127 INVERSE1039    ORDER   2        NO. 128 INVERSE 128    ORDER   2
    1.000   0.000   0.000    -2.424         0.000  -1.000   0.000    -2.424
    0.000  -1.000   0.000    -2.424        -1.000   0.000   0.000    -2.424
    0.000   0.000   1.000     0.000         0.000   0.000   1.000     0.000
             OPERATION M(   2)                       OPERATION M(   2)
 DETERMINANT-1.; ROTATION(DEG)   0.      DETERMINANT-1.; ROTATION(DEG)   0.
 TRANSLA ( -2.424    0.000    0.000)     TRANSLA (  0.000    0.000    0.000)
 uvw/hkl (  0.000   -2.000    0.000)     uvw/hkl (  1.000    1.000   -0.000)
 LOCATED (  0.000   -1.212    0.000)     LOCATED ( -2.424    0.000    0.000)

   NO. 129 INVERSE 322    ORDER   6        NO. 130 INVERSE 897    ORDER   6
    0.000   0.000  -1.000    -2.424         0.000  -1.000   0.000    -2.424
   -1.000   0.000   0.000    -2.424         0.000   0.000  -1.000    -2.424
    0.000  -1.000   0.000     0.000        -1.000   0.000   0.000     0.000
             OPERATION S(   6)                       OPERATION S(   6)
 DETERMINANT-1.; ROTATION(DEG)  60.      DETERMINANT-1.; ROTATION(DEG)  60.
 TRANSLA (  0.000    0.000    0.000)     TRANSLA (  0.000    0.000    0.000)
 uvw/hkl ( -1.000    1.000    1.000)     uvw/hkl (  1.000   -1.000    1.000)
 LOCATED ( -2.424    0.000    0.000)     LOCATED (  0.000   -2.424    0.000)

   NO. 131 INVERSE 948    ORDER   6        NO. 132 INVERSE 467    ORDER   6
    0.000   0.000  -1.000    -2.424         0.000   1.000   0.000    -2.424
    1.000   0.000   0.000    -2.424         0.000   0.000   1.000    -2.424
    0.000   1.000   0.000     0.000        -1.000   0.000   0.000     0.000
             OPERATION S(   6)                       OPERATION S(   6)
 DETERMINANT-1.; ROTATION(DEG)  60.      DETERMINANT-1.; ROTATION(DEG)  60.
 TRANSLA (  0.000    0.000    0.000)     TRANSLA (  0.000    0.000    0.000)
 uvw/hkl ( -1.000   -1.000    1.000)     uvw/hkl (  1.000    1.000    1.000)
 LOCATED ( -2.424   -4.848    0.000)     LOCATED ( -4.848   -2.424    0.000)

   NO. 133 INVERSE 566    ORDER   6        NO. 134 INVERSE 277    ORDER   6
    0.000   0.000   1.000    -2.424         0.000  -1.000   0.000    -2.424
   -1.000   0.000   0.000    -2.424         0.000   0.000   1.000    -2.424
    0.000   1.000   0.000     0.000         1.000   0.000   0.000     0.000
             OPERATION S(   6)                       OPERATION S(   6)
 DETERMINANT-1.; ROTATION(DEG)  60.      DETERMINANT-1.; ROTATION(DEG)  60.
 TRANSLA (  0.000    0.000    0.000)     TRANSLA (  0.000    0.000    0.000)
 uvw/hkl (  1.000   -1.000    1.000)     uvw/hkl ( -1.000    1.000    1.000)
 LOCATED ( -2.424    0.000    0.000)     LOCATED (  0.000   -2.424    0.000)

   NO. 135 INVERSE 184    ORDER   6        NO. 136 INVERSE 375    ORDER   6
    0.000   0.000   1.000    -2.424         0.000   1.000   0.000    -2.424
    1.000   0.000   0.000    -2.424         0.000   0.000  -1.000    -2.424
    0.000  -1.000   0.000     0.000         1.000   0.000   0.000     0.000
             OPERATION S(   6)                       OPERATION S(   6)
 DETERMINANT-1.; ROTATION(DEG)  60.      DETERMINANT-1.; ROTATION(DEG)  60.
 TRANSLA (  0.000    0.000    0.000)     TRANSLA (  0.000    0.000    0.000)
 uvw/hkl (  1.000    1.000    1.000)     uvw/hkl ( -1.000   -1.000    1.000)
 LOCATED ( -2.424   -4.848    0.000)     LOCATED ( -4.848   -2.424    0.000)

   NO. 137 INVERSE 377    ORDER   2        NO. 138 INVERSE 331    ORDER   4
    0.000   0.000  -1.000    -2.424        -1.000   0.000   0.000    -2.424
    0.000   1.000   0.000    -2.424         0.000   0.000  -1.000    -2.424
   -1.000   0.000   0.000     0.000         0.000   1.000   0.000     0.000
             OPERATION M(   2)                       OPERATION S(   4)
 DETERMINANT-1.; ROTATION(DEG)   0.      DETERMINANT-1.; ROTATION(DEG)  90.
 TRANSLA ( -1.212   -2.424    1.212)     TRANSLA (  0.000    0.000    0.000)
 uvw/hkl (  1.000   -0.000    1.000)     uvw/hkl (  0.000   -2.000    2.000)
 LOCATED ( -1.212    0.000    0.000)     LOCATED ( -1.212   -2.424    0.000)

   NO. 139 INVERSE 570    ORDER   4        NO. 140 INVERSE 956    ORDER   2
   -1.000   0.000   0.000    -2.424         1.000   0.000   0.000    -2.424
    0.000   0.000   1.000    -2.424         0.000   0.000  -1.000    -2.424
    0.000  -1.000   0.000     0.000         0.000  -1.000   0.000     0.000
             OPERATION S(   4)                       OPERATION M(   2)
 DETERMINANT-1.; ROTATION(DEG)  90.      DETERMINANT-1.; ROTATION(DEG)   0.
 TRANSLA (  0.000    0.000    0.000)     TRANSLA ( -2.424   -1.212    1.212)
 uvw/hkl (  0.000    2.000    2.000)     uvw/hkl (  0.000   -1.000   -1.000)
 LOCATED ( -1.212   -2.424    0.000)     LOCATED (  0.000   -1.212    0.000)

   NO. 141 INVERSE 910    ORDER   4        NO. 142 INVERSE 285    ORDER   4
    0.000   0.000  -1.000    -2.424         0.000   0.000   1.000    -2.424
    0.000  -1.000   0.000    -2.424         0.000  -1.000   0.000    -2.424
    1.000   0.000   0.000     0.000        -1.000   0.000   0.000     0.000
             OPERATION S(   4)                       OPERATION S(   4)
 DETERMINANT-1.; ROTATION(DEG)  90.      DETERMINANT-1.; ROTATION(DEG)  90.
 TRANSLA (  0.000    0.000    0.000)     TRANSLA (  0.000    0.000    0.000)
 uvw/hkl ( -2.000    0.000    2.000)     uvw/hkl (  2.000    0.000    2.000)
 LOCATED ( -2.424   -1.212    0.000)     LOCATED ( -2.424   -1.212    0.000)

   NO. 143 INVERSE 479    ORDER   2        NO. 144 INVERSE 192    ORDER   2
    0.000   0.000   1.000    -2.424         1.000   0.000   0.000    -2.424
    0.000   1.000   0.000    -2.424         0.000   0.000   1.000    -2.424
    1.000   0.000   0.000     0.000         0.000   1.000   0.000     0.000
             OPERATION M(   2)                       OPERATION M(   2)
 DETERMINANT-1.; ROTATION(DEG)   0.      DETERMINANT-1.; ROTATION(DEG)   0.
 TRANSLA ( -1.212   -2.424   -1.212)     TRANSLA ( -2.424   -1.212   -1.212)
 uvw/hkl (  1.000   -0.000   -1.000)     uvw/hkl (  0.000   -1.000    1.000)
 LOCATED ( -1.212    0.000    0.000)     LOCATED (  0.000   -1.212    0.000)

   NO. 145 INVERSE 289    ORDER   1        NO. 146 INVERSE 339    ORDER   4
    1.000   0.000   0.000     2.424         0.000  -1.000   0.000     2.424
    0.000   1.000   0.000     0.000         1.000   0.000   0.000     0.000
    0.000   0.000   1.000     2.424         0.000   0.000   1.000     2.424
             OPERATION E(   1)                       OPERATION C(   4)
 DETERMINANT 1.; ROTATION(DEG)   0.      DETERMINANT 1.; ROTATION(DEG)  90.
 TRANSLA (  2.424    0.000    2.424)     TRANSLA (  0.000    0.000    2.424)
 uvw/hkl (  0.000    0.000    0.000)     uvw/hkl (  0.000    0.000    2.000)
 LOCATED (  0.000    0.000    0.000)     LOCATED (  1.212    1.212    0.000)

   NO. 147 INVERSE 866    ORDER   4        NO. 148 INVERSE 916    ORDER   2
    0.000   1.000   0.000     2.424        -1.000   0.000   0.000     2.424
   -1.000   0.000   0.000     0.000         0.000  -1.000   0.000     0.000
    0.000   0.000   1.000     2.424         0.000   0.000   1.000     2.424
             OPERATION C(   4)                       OPERATION C(   2)
 DETERMINANT 1.; ROTATION(DEG)  90.      DETERMINANT 1.; ROTATION(DEG) 180.
 TRANSLA (  0.000    0.000    2.424)     TRANSLA (  0.000    0.000    2.424)
 uvw/hkl (  0.000    0.000    2.000)     uvw/hkl (  0.000    0.000    4.000)
 LOCATED (  1.212   -1.212    0.000)     LOCATED (  1.212    0.000    0.000)

   NO. 149 INVERSE 533    ORDER   2        NO. 150 INVERSE 438    ORDER   2
    1.000   0.000   0.000     2.424         0.000  -1.000   0.000     2.424
    0.000  -1.000   0.000     0.000        -1.000   0.000   0.000     0.000
    0.000   0.000  -1.000     2.424         0.000   0.000  -1.000     2.424
             OPERATION C(   2)                       OPERATION C(   2)
 DETERMINANT 1.; ROTATION(DEG) 180.      DETERMINANT 1.; ROTATION(DEG) 180.
 TRANSLA (  2.424    0.000    0.000)     TRANSLA (  1.212   -1.212    0.000)
 uvw/hkl (  4.000    0.000    0.000)     uvw/hkl (  2.000   -2.000    0.000)
 LOCATED (  0.000    0.000    1.212)     LOCATED (  1.212    0.000    1.212)

   NO. 151 INVERSE 151    ORDER   2        NO. 152 INVERSE 248    ORDER   2
   -1.000   0.000   0.000     2.424         0.000   1.000   0.000     2.424
    0.000   1.000   0.000     0.000         1.000   0.000   0.000     0.000
    0.000   0.000  -1.000     2.424         0.000   0.000  -1.000     2.424
             OPERATION C(   2)                       OPERATION C(   2)
 DETERMINANT 1.; ROTATION(DEG) 180.      DETERMINANT 1.; ROTATION(DEG) 180.
 TRANSLA (  0.000    0.000    0.000)     TRANSLA (  1.212    1.212    0.000)
 uvw/hkl ( -0.000   -4.000   -0.000)     uvw/hkl ( -2.000   -2.000   -0.000)
 LOCATED (  1.212    0.000    1.212)     LOCATED (  1.212    0.000    1.212)

   NO. 153 INVERSE 874    ORDER   3        NO. 154 INVERSE 105    ORDER   3
    0.000   0.000   1.000     2.424         0.000   1.000   0.000     2.424
    1.000   0.000   0.000     0.000         0.000   0.000   1.000     0.000
    0.000   1.000   0.000     2.424         1.000   0.000   0.000     2.424
             OPERATION C(   3)                       OPERATION C(   3)
 DETERMINANT 1.; ROTATION(DEG) 120.      DETERMINANT 1.; ROTATION(DEG) 120.
 TRANSLA (  1.616    1.616    1.616)     TRANSLA (  1.616    1.616    1.616)
 uvw/hkl (  1.000    1.000    1.000)     uvw/hkl (  1.000    1.000    1.000)
 LOCATED (  0.808   -0.808    0.000)     LOCATED ( -0.808   -1.616    0.000)

   NO. 155 INVERSE 348    ORDER   3        NO. 156 INVERSE 731    ORDER   3
    0.000   0.000   1.000     2.424         0.000  -1.000   0.000     2.424
   -1.000   0.000   0.000     0.000         0.000   0.000  -1.000     0.000
    0.000  -1.000   0.000     2.424         1.000   0.000   0.000     2.424
             OPERATION C(   3)                       OPERATION C(   3)
 DETERMINANT 1.; ROTATION(DEG) 120.      DETERMINANT 1.; ROTATION(DEG) 120.
 TRANSLA (  1.616   -1.616    1.616)     TRANSLA (  1.616   -1.616    1.616)
 uvw/hkl (  1.000   -1.000    1.000)     uvw/hkl (  1.000   -1.000    1.000)
 LOCATED (  0.808    0.808    0.000)     LOCATED ( -0.808    1.616    0.000)

   NO. 157 INVERSE 446    ORDER   3        NO. 158 INVERSE1021    ORDER   3
    0.000   0.000  -1.000     2.424         0.000   1.000   0.000     2.424
    1.000   0.000   0.000     0.000         0.000   0.000  -1.000     0.000
    0.000  -1.000   0.000     2.424        -1.000   0.000   0.000     2.424
             OPERATION C(   3)                       OPERATION C(   3)
 DETERMINANT 1.; ROTATION(DEG) 120.      DETERMINANT 1.; ROTATION(DEG) 120.
 TRANSLA (  0.000    0.000    0.000)     TRANSLA (  0.000    0.000    0.000)
 uvw/hkl ( -1.000   -1.000    1.000)     uvw/hkl ( -1.000   -1.000    1.000)
 LOCATED (  2.424    2.424    0.000)     LOCATED (  2.424    0.000    0.000)

   NO. 159 INVERSE 256    ORDER   3        NO. 160 INVERSE  63    ORDER   3
    0.000   0.000  -1.000     2.424         0.000  -1.000   0.000     2.424
   -1.000   0.000   0.000     0.000         0.000   0.000   1.000     0.000
    0.000   1.000   0.000     2.424        -1.000   0.000   0.000     2.424
             OPERATION C(   3)                       OPERATION C(   3)
 DETERMINANT 1.; ROTATION(DEG) 120.      DETERMINANT 1.; ROTATION(DEG) 120.
 TRANSLA (  0.000    0.000    0.000)     TRANSLA (  0.000    0.000    0.000)
 uvw/hkl ( -1.000    1.000    1.000)     uvw/hkl ( -1.000    1.000    1.000)
 LOCATED (  2.424   -2.424    0.000)     LOCATED (  2.424    0.000    0.000)

   NO. 161 INVERSE 305    ORDER   2        NO. 162 INVERSE 739    ORDER   4
    0.000   0.000   1.000     2.424         1.000   0.000   0.000     2.424
    0.000  -1.000   0.000     0.000         0.000   0.000   1.000     0.000
    1.000   0.000   0.000     2.424         0.000  -1.000   0.000     2.424
             OPERATION C(   2)                       OPERATION C(   4)
 DETERMINANT 1.; ROTATION(DEG) 180.      DETERMINANT 1.; ROTATION(DEG)  90.
 TRANSLA (  2.424    0.000    2.424)     TRANSLA (  2.424    0.000    0.000)
 uvw/hkl (  2.000    0.000    2.000)     uvw/hkl (  2.000    0.000    0.000)
 LOCATED ( -0.000   -0.000    0.000)     LOCATED (  0.000    1.212    1.212)

   NO. 163 INVERSE 114    ORDER   4        NO. 164 INVERSE1028    ORDER   2
    1.000   0.000   0.000     2.424        -1.000   0.000   0.000     2.424
    0.000   0.000  -1.000     0.000         0.000   0.000   1.000     0.000
    0.000   1.000   0.000     2.424         0.000   1.000   0.000     2.424
             OPERATION C(   4)                       OPERATION C(   2)
 DETERMINANT 1.; ROTATION(DEG)  90.      DETERMINANT 1.; ROTATION(DEG) 180.
 TRANSLA (  2.424    0.000    0.000)     TRANSLA (  0.000    1.212    1.212)
 uvw/hkl (  2.000    0.000    0.000)     uvw/hkl (  0.000    2.000    2.000)
 LOCATED (  0.000   -1.212    1.212)     LOCATED (  1.212   -1.212    0.000)

   NO. 165 INVERSE 934    ORDER   4        NO. 166 INVERSE 549    ORDER   4
    0.000   0.000   1.000     2.424         0.000   0.000  -1.000     2.424
    0.000   1.000   0.000     0.000         0.000   1.000   0.000     0.000
   -1.000   0.000   0.000     2.424         1.000   0.000   0.000     2.424
             OPERATION C(   4)                       OPERATION C(   4)
 DETERMINANT 1.; ROTATION(DEG)  90.      DETERMINANT 1.; ROTATION(DEG)  90.
 TRANSLA (  0.000    0.000    0.000)     TRANSLA (  0.000    0.000    0.000)
 uvw/hkl ( -0.000   -2.000    0.000)     uvw/hkl (  0.000   -2.000   -0.000)
 LOCATED (  2.424    0.000    0.000)     LOCATED (  0.000    0.000    2.424)

   NO. 167 INVERSE 167    ORDER   2        NO. 168 INVERSE  72    ORDER   2
    0.000   0.000  -1.000     2.424        -1.000   0.000   0.000     2.424
    0.000  -1.000   0.000     0.000         0.000   0.000  -1.000     0.000
   -1.000   0.000   0.000     2.424         0.000  -1.000   0.000     2.424
             OPERATION C(   2)                       OPERATION C(   2)
 DETERMINANT 1.; ROTATION(DEG) 180.      DETERMINANT 1.; ROTATION(DEG) 180.
 TRANSLA (  0.000    0.000    0.000)     TRANSLA (  0.000   -1.212    1.212)
 uvw/hkl ( -2.000    0.000    2.000)     uvw/hkl (  0.000   -2.000    2.000)
 LOCATED (  2.424    0.000    0.000)     LOCATED (  1.212    1.212    0.000)

   NO. 169 INVERSE 169    ORDER   2        NO. 170 INVERSE 267    ORDER   4
   -1.000   0.000   0.000     2.424         0.000   1.000   0.000     2.424
    0.000  -1.000   0.000     0.000        -1.000   0.000   0.000     0.000
    0.000   0.000  -1.000     2.424         0.000   0.000  -1.000     2.424
             OPERATION I(   2)                       OPERATION S(   4)
 DETERMINANT-1.; ROTATION(DEG) 180.      DETERMINANT-1.; ROTATION(DEG)  90.
 TRANSLA (  0.000    0.000    0.000)     TRANSLA (  0.000    0.000    0.000)
 uvw/hkl (  0.000    0.000    0.000)     uvw/hkl (  0.000    0.000    2.000)
 LOCATED (  1.212    0.000    1.212)     LOCATED (  1.212   -1.212    1.212)

   NO. 171 INVERSE 458    ORDER   4        NO. 172 INVERSE 556    ORDER   2
    0.000  -1.000   0.000     2.424         1.000   0.000   0.000     2.424
    1.000   0.000   0.000     0.000         0.000   1.000   0.000     0.000
    0.000   0.000  -1.000     2.424         0.000   0.000  -1.000     2.424
             OPERATION S(   4)                       OPERATION M(   2)
 DETERMINANT-1.; ROTATION(DEG)  90.      DETERMINANT-1.; ROTATION(DEG)   0.
 TRANSLA (  0.000    0.000    0.000)     TRANSLA (  2.424    0.000    0.000)
 uvw/hkl (  0.000    0.000    2.000)     uvw/hkl (  0.000    0.000   -2.000)
 LOCATED (  1.212    1.212    1.212)     LOCATED (  0.000    0.000    1.212)

   NO. 173 INVERSE 941    ORDER   2        NO. 174 INVERSE 894    ORDER   2
   -1.000   0.000   0.000     2.424         0.000   1.000   0.000     2.424
    0.000   1.000   0.000     0.000         1.000   0.000   0.000     0.000
    0.000   0.000   1.000     2.424         0.000   0.000   1.000     2.424
             OPERATION M(   2)                       OPERATION M(   2)
 DETERMINANT-1.; ROTATION(DEG)   0.      DETERMINANT-1.; ROTATION(DEG)   0.
 TRANSLA (  0.000    0.000    2.424)     TRANSLA (  1.212    1.212    2.424)
 uvw/hkl (  2.000   -0.000   -0.000)     uvw/hkl (  1.000   -1.000   -0.000)
 LOCATED (  1.212    0.000    0.000)     LOCATED (  1.212    0.000    0.000)

   NO. 175 INVERSE 319    ORDER   2        NO. 176 INVERSE 368    ORDER   2
    1.000   0.000   0.000     2.424         0.000  -1.000   0.000     2.424
    0.000  -1.000   0.000     0.000        -1.000   0.000   0.000     0.000
    0.000   0.000   1.000     2.424         0.000   0.000   1.000     2.424
             OPERATION M(   2)                       OPERATION M(   2)
 DETERMINANT-1.; ROTATION(DEG)   0.      DETERMINANT-1.; ROTATION(DEG)   0.
 TRANSLA (  2.424    0.000    2.424)     TRANSLA (  1.212   -1.212    2.424)
 uvw/hkl (  0.000   -2.000    0.000)     uvw/hkl (  1.000    1.000   -0.000)
 LOCATED (  0.000   -0.000    0.000)     LOCATED (  1.212    0.000    0.000)

   NO. 177 INVERSE 466    ORDER   6        NO. 178 INVERSE  81    ORDER   6
    0.000   0.000  -1.000     2.424         0.000  -1.000   0.000     2.424
   -1.000   0.000   0.000     0.000         0.000   0.000  -1.000     0.000
    0.000  -1.000   0.000     2.424        -1.000   0.000   0.000     2.424
             OPERATION S(   6)                       OPERATION S(   6)
 DETERMINANT-1.; ROTATION(DEG)  60.      DETERMINANT-1.; ROTATION(DEG)  60.
 TRANSLA (  0.000    0.000    0.000)     TRANSLA (  0.000    0.000    0.000)
 uvw/hkl ( -1.000    1.000    1.000)     uvw/hkl (  1.000   -1.000    1.000)
 LOCATED (  2.424   -2.424    0.000)     LOCATED (  2.424    0.000    0.000)

   NO. 179 INVERSE 276    ORDER   6        NO. 180 INVERSE1043    ORDER   6
    0.000   0.000  -1.000     2.424         0.000   1.000   0.000     2.424
    1.000   0.000   0.000     0.000         0.000   0.000   1.000     0.000
    0.000   1.000   0.000     2.424        -1.000   0.000   0.000     2.424
             OPERATION S(   6)                       OPERATION S(   6)
 DETERMINANT-1.; ROTATION(DEG)  60.      DETERMINANT-1.; ROTATION(DEG)  60.
 TRANSLA (  0.000    0.000    0.000)     TRANSLA (  0.000    0.000    0.000)
 uvw/hkl ( -1.000   -1.000    1.000)     uvw/hkl (  1.000    1.000    1.000)
 LOCATED (  2.424    2.424    0.000)     LOCATED (  2.424    0.000    0.000)

   NO. 181 INVERSE 902    ORDER   6        NO. 182 INVERSE 757    ORDER   6
    0.000   0.000   1.000     2.424         0.000  -1.000   0.000     2.424
   -1.000   0.000   0.000     0.000         0.000   0.000   1.000     0.000
    0.000   1.000   0.000     2.424         1.000   0.000   0.000     2.424
             OPERATION S(   6)                       OPERATION S(   6)
 DETERMINANT-1.; ROTATION(DEG)  60.      DETERMINANT-1.; ROTATION(DEG)  60.
 TRANSLA (  0.000    0.000    0.000)     TRANSLA (  0.000    0.000    0.000)
 uvw/hkl (  1.000   -1.000    1.000)     uvw/hkl ( -1.000    1.000    1.000)
 LOCATED (  2.424   -2.424    0.000)     LOCATED (  2.424    0.000    0.000)

   NO. 183 INVERSE 376    ORDER   6        NO. 184 INVERSE 135    ORDER   6
    0.000   0.000   1.000     2.424         0.000   1.000   0.000     2.424
    1.000   0.000   0.000     0.000         0.000   0.000  -1.000     0.000
    0.000  -1.000   0.000     2.424         1.000   0.000   0.000     2.424
             OPERATION S(   6)                       OPERATION S(   6)
 DETERMINANT-1.; ROTATION(DEG)  60.      DETERMINANT-1.; ROTATION(DEG)  60.
 TRANSLA (  0.000    0.000    0.000)     TRANSLA (  0.000    0.000    0.000)
 uvw/hkl (  1.000    1.000    1.000)     uvw/hkl ( -1.000   -1.000    1.000)
 LOCATED (  2.424    2.424    0.000)     LOCATED (  2.424    0.000    0.000)

   NO. 185 INVERSE 185    ORDER   2        NO. 186 INVERSE1051    ORDER   4
    0.000   0.000  -1.000     2.424        -1.000   0.000   0.000     2.424
    0.000   1.000   0.000     0.000         0.000   0.000  -1.000     0.000
   -1.000   0.000   0.000     2.424         0.000   1.000   0.000     2.424
             OPERATION M(   2)                       OPERATION S(   4)
 DETERMINANT-1.; ROTATION(DEG)   0.      DETERMINANT-1.; ROTATION(DEG)  90.
 TRANSLA (  0.000    0.000    0.000)     TRANSLA (  0.000    0.000    0.000)
 uvw/hkl (  1.000   -0.000    1.000)     uvw/hkl (  0.000   -2.000    2.000)
 LOCATED (  2.424    0.000    0.000)     LOCATED (  1.212    0.000    0.000)

   NO. 187 INVERSE  90    ORDER   4        NO. 188 INVERSE 764    ORDER   2
   -1.000   0.000   0.000     2.424         1.000   0.000   0.000     2.424
    0.000   0.000   1.000     0.000         0.000   0.000  -1.000     0.000
    0.000  -1.000   0.000     2.424         0.000  -1.000   0.000     2.424
[...]
  CA   3   5   6   7   8   9  10  12  13  15  16  17  20  21  22  23  24  26
  --------------------------------------------------------------------------    
  XX   1   2   4  11  14  18  19  25  27
 <><><><><><><><><><><><><><><><><><><><><><><><><><><><><><><><><><><>
  CLASS :         3972     MULTIPLICITY : 648     N. OF SYMM. OP. :   2
  CA   3   5   6   7   8   9  10  12  13  15  16  17  19  20  23  25  26  27
  --------------------------------------------------------------------------    
  XX   1   2   4  11  14  18  21  22  24
 <><><><><><><><><><><><><><><><><><><><><><><><><><><><><><><><><><><>
  CLASS :         3973     MULTIPLICITY :1296     N. OF SYMM. OP. :   1
  CA   3   5   6   7   8   9  10  12  13  15  16  17  19  20  23  24  25  27
  --------------------------------------------------------------------------    
  XX   1   2   4  11  14  18  21  22  26
 <><><><><><><><><><><><><><><><><><><><><><><><><><><><><><><><><><><>
  CLASS :         3974     MULTIPLICITY : 648     N. OF SYMM. OP. :   2
  CA   3   5   6   7   8   9  10  12  13  15  16  17  19  20  23  24  25  26
  --------------------------------------------------------------------------    
  XX   1   2   4  11  14  18  21  22  27
 <><><><><><><><><><><><><><><><><><><><><><><><><><><><><><><><><><><>
  CLASS :         3975     MULTIPLICITY :1296     N. OF SYMM. OP. :   1
  CA   3   5   6   7   8   9  10  12  13  15  16  17  19  20  22  23  26  27
  --------------------------------------------------------------------------    
  XX   1   2   4  11  14  18  21  24  25
 <><><><><><><><><><><><><><><><><><><><><><><><><><><><><><><><><><><>
  CLASS :         3976     MULTIPLICITY : 648     N. OF SYMM. OP. :   2
  CA   3   5   6   7   8   9  10  12  13  15  16  17  19  20  21  23  25  26
  --------------------------------------------------------------------------    
  XX   1   2   4  11  14  18  22  24  27
 <><><><><><><><><><><><><><><><><><><><><><><><><><><><><><><><><><><>
  CLASS :         3977     MULTIPLICITY : 648     N. OF SYMM. OP. :   2
  CA   3   5   6   7   8   9  10  12  13  15  16  17  19  20  21  23  24  25
  --------------------------------------------------------------------------    
  XX   1   2   4  11  14  18  22  26  27
 <><><><><><><><><><><><><><><><><><><><><><><><><><><><><><><><><><><>
  CLASS :         3978     MULTIPLICITY : 648     N. OF SYMM. OP. :   2
  CA   3   5   6   7   8   9  10  12  13  15  16  17  19  20  21  22  23  26
  --------------------------------------------------------------------------    
  XX   1   2   4  11  14  18  24  25  27
 <><><><><><><><><><><><><><><><><><><><><><><><><><><><><><><><><><><>
  CLASS :         3979     MULTIPLICITY :1296     N. OF SYMM. OP. :   1
  CA   3   5   6   7   8   9  10  12  13  15  16  17  18  20  22  23  24  25
  --------------------------------------------------------------------------    
  XX   1   2   4  11  14  19  21  26  27
 <><><><><><><><><><><><><><><><><><><><><><><><><><><><><><><><><><><>
  CLASS :         3980     MULTIPLICITY :1296     N. OF SYMM. OP. :   1
  CA   3   5   6   7   8   9  10  12  13  15  16  17  18  20  21  22  23  26
  --------------------------------------------------------------------------    
  XX   1   2   4  11  14  19  24  25  27
 <><><><><><><><><><><><><><><><><><><><><><><><><><><><><><><><><><><>
  CLASS :         3981     MULTIPLICITY : 648     N. OF SYMM. OP. :   2
  CA   3   5   6   7   8   9  10  12  13  15  16  17  18  19  20  23  25  27
  --------------------------------------------------------------------------    
  XX   1   2   4  11  14  21  22  24  26
 <><><><><><><><><><><><><><><><><><><><><><><><><><><><><><><><><><><>
  CLASS :         3982     MULTIPLICITY : 648     N. OF SYMM. OP. :   2
  CA   3   5   6   7   8   9  10  12  13  15  16  17  18  19  20  23  24  25
  --------------------------------------------------------------------------    
  XX   1   2   4  11  14  21  22  26  27
 <><><><><><><><><><><><><><><><><><><><><><><><><><><><><><><><><><><>
  CLASS :         3983     MULTIPLICITY :1296     N. OF SYMM. OP. :   1
  CA   3   5   6   7   8   9  10  12  13  15  16  17  18  19  20  22  23  27
  --------------------------------------------------------------------------    
  XX   1   2   4  11  14  21  24  25  26
 <><><><><><><><><><><><><><><><><><><><><><><><><><><><><><><><><><><>
  CLASS :         3984     MULTIPLICITY :1296     N. OF SYMM. OP. :   1
  CA   3   5   6   7   8   9  10  12  13  14  17  20  22  23  24  25  26  27
  --------------------------------------------------------------------------    
  XX   1   2   4  11  15  16  18  19  21
 <><><><><><><><><><><><><><><><><><><><><><><><><><><><><><><><><><><>
  CLASS :         3985     MULTIPLICITY : 648     N. OF SYMM. OP. :   2
  CA   3   5   6   7   8   9  10  12  13  14  17  20  21  22  23  25  26  27
  --------------------------------------------------------------------------    
  XX   1   2   4  11  15  16  18  19  24
 <><><><><><><><><><><><><><><><><><><><><><><><><><><><><><><><><><><>
  CLASS :         3986     MULTIPLICITY : 216     N. OF SYMM. OP. :   6
  CA   3   5   6   7   8   9  10  12  13  14  17  18  20  22  23  24  26  27
  --------------------------------------------------------------------------    
  XX   1   2   4  11  15  16  19  21  25
 <><><><><><><><><><><><><><><><><><><><><><><><><><><><><><><><><><><>
  CLASS :         3987     MULTIPLICITY :1296     N. OF SYMM. OP. :   1
  CA   3   5   6   7   8   9  10  12  13  14  17  18  20  22  23  24  25  26
  --------------------------------------------------------------------------    
  XX   1   2   4  11  15  16  19  21  27
 <><><><><><><><><><><><><><><><><><><><><><><><><><><><><><><><><><><>
  CLASS :         3988     MULTIPLICITY :1296     N. OF SYMM. OP. :   1
  CA   3   5   6   7   8   9  10  12  13  14  17  18  20  21  22  23  25  26
  --------------------------------------------------------------------------    
  XX   1   2   4  11  15  16  19  24  27
 <><><><><><><><><><><><><><><><><><><><><><><><><><><><><><><><><><><>
  CLASS :         3989     MULTIPLICITY : 216     N. OF SYMM. OP. :   6
  CA   3   5   6   7   8   9  10  12  13  14  17  18  19  20  21  22  23  25
  --------------------------------------------------------------------------    
  XX   1   2   4  11  15  16  24  26  27
 <><><><><><><><><><><><><><><><><><><><><><><><><><><><><><><><><><><>
  CLASS :         3990     MULTIPLICITY :1296     N. OF SYMM. OP. :   1
  CA   3   5   6   7   8   9  10  12  13  14  16  17  20  22  23  24  25  26
  --------------------------------------------------------------------------    
  XX   1   2   4  11  15  18  19  21  27
 <><><><><><><><><><><><><><><><><><><><><><><><><><><><><><><><><><><>
  CLASS :         3991     MULTIPLICITY :1296     N. OF SYMM. OP. :   1
  CA   3   5   6   7   8   9  10  12  13  14  16  17  20  21  22  23  24  26
  --------------------------------------------------------------------------    
  XX   1   2   4  11  15  18  19  25  27
 <><><><><><><><><><><><><><><><><><><><><><><><><><><><><><><><><><><>
  CLASS :         3992     MULTIPLICITY : 324     N. OF SYMM. OP. :   4
  CA   3   5   6   7   8   9  10  12  13  14  16  17  19  20  21  23  24  25
  --------------------------------------------------------------------------    
  XX   1   2   4  11  15  18  22  26  27
 <><><><><><><><><><><><><><><><><><><><><><><><><><><><><><><><><><><>
  CLASS :         3993     MULTIPLICITY : 648     N. OF SYMM. OP. :   2
  CA   3   5   6   7   8   9  10  12  13  14  16  17  18  20  22  23  24  25
  --------------------------------------------------------------------------    
  XX   1   2   4  11  15  19  21  26  27
 <><><><><><><><><><><><><><><><><><><><><><><><><><><><><><><><><><><>
  CLASS :         3994     MULTIPLICITY :1296     N. OF SYMM. OP. :   1
  CA   3   5   6   7   8   9  10  12  13  14  16  17  18  20  21  22  23  26
  --------------------------------------------------------------------------    
  XX   1   2   4  11  15  19  24  25  27
 <><><><><><><><><><><><><><><><><><><><><><><><><><><><><><><><><><><>
  CLASS :         3995     MULTIPLICITY : 108     N. OF SYMM. OP. :  12
  CA   3   5   6   7   8   9  10  12  13  14  15  16  19  20  21  23  25  26
  --------------------------------------------------------------------------    
  XX   1   2   4  11  17  18  22  24  27
   WARNING : THIS CONFIG CAN BE OBTAINED WITH A SMALLER CELL
 <><><><><><><><><><><><><><><><><><><><><><><><><><><><><><><><><><><>
  CLASS :         3996     MULTIPLICITY : 648     N. OF SYMM. OP. :   2
  CA   3   5   6   7   8   9  10  12  13  14  15  16  17  20  21  22  23  26
  --------------------------------------------------------------------------    
  XX   1   2   4  11  18  19  24  25  27
 <><><><><><><><><><><><><><><><><><><><><><><><><><><><><><><><><><><>
  CLASS :         3997     MULTIPLICITY : 324     N. OF SYMM. OP. :   4
  CA   3   5   6   7   8   9  10  11  12  13  15  16  17  20  22  23  24  25
  --------------------------------------------------------------------------    
  XX   1   2   4  14  18  19  21  26  27
 <><><><><><><><><><><><><><><><><><><><><><><><><><><><><><><><><><><>
  CLASS :         3998     MULTIPLICITY : 324     N. OF SYMM. OP. :   4
  CA   3   4   8   9  10  11  12  13  14  16  18  19  20  22  23  24  26  27
  --------------------------------------------------------------------------    
  XX   1   2   5   6   7  15  17  21  25
 <><><><><><><><><><><><><><><><><><><><><><><><><><><><><><><><><><><>
  CLASS :         3999     MULTIPLICITY : 648     N. OF SYMM. OP. :   2
  CA   3   4   8   9  10  11  12  13  14  16  18  19  20  22  23  24  25  26
  --------------------------------------------------------------------------    
  XX   1   2   5   6   7  15  17  21  27
 <><><><><><><><><><><><><><><><><><><><><><><><><><><><><><><><><><><>
  CLASS :         4000     MULTIPLICITY : 648     N. OF SYMM. OP. :   2
  CA   3   4   8   9  10  11  12  13  14  16  18  19  20  21  22  23  24  26
  --------------------------------------------------------------------------    
  XX   1   2   5   6   7  15  17  25  27
 <><><><><><><><><><><><><><><><><><><><><><><><><><><><><><><><><><><>
  CLASS :         4001     MULTIPLICITY :1296     N. OF SYMM. OP. :   1
  CA   3   4   7   8   9  10  11  12  14  18  20  21  22  23  24  25  26  27
  --------------------------------------------------------------------------    
  XX   1   2   5   6  13  15  16  17  19
 <><><><><><><><><><><><><><><><><><><><><><><><><><><><><><><><><><><>
  CLASS :         4002     MULTIPLICITY : 648     N. OF SYMM. OP. :   2
  CA   3   4   7   8   9  10  11  12  14  17  18  20  21  22  23  24  25  27
  --------------------------------------------------------------------------    
  XX   1   2   5   6  13  15  16  19  26
 <><><><><><><><><><><><><><><><><><><><><><><><><><><><><><><><><><><>
  CLASS :         4003     MULTIPLICITY : 648     N. OF SYMM. OP. :   2
  CA   3   4   7   8   9  10  11  12  14  17  18  19  20  22  23  24  26  27
  --------------------------------------------------------------------------    
  XX   1   2   5   6  13  15  16  21  25
 <><><><><><><><><><><><><><><><><><><><><><><><><><><><><><><><><><><>
  CLASS :         4004     MULTIPLICITY : 648     N. OF SYMM. OP. :   2
  CA   3   4   7   8   9  10  11  12  14  17  18  19  20  22  23  24  25  27
  --------------------------------------------------------------------------    
  XX   1   2   5   6  13  15  16  21  26
 <><><><><><><><><><><><><><><><><><><><><><><><><><><><><><><><><><><>
  CLASS :         4005     MULTIPLICITY : 324     N. OF SYMM. OP. :   4
  CA   3   4   7   8   9  10  11  12  14  17  18  19  20  22  23  24  25  26
  --------------------------------------------------------------------------    
  XX   1   2   5   6  13  15  16  21  27
 <><><><><><><><><><><><><><><><><><><><><><><><><><><><><><><><><><><>
  CLASS :         4006     MULTIPLICITY :1296     N. OF SYMM. OP. :   1
  CA   3   4   7   8   9  10  11  12  14  17  18  19  20  21  22  23  24  27
  --------------------------------------------------------------------------    
  XX   1   2   5   6  13  15  16  25  26
 <><><><><><><><><><><><><><><><><><><><><><><><><><><><><><><><><><><>
  CLASS :         4007     MULTIPLICITY :1296     N. OF SYMM. OP. :   1
  CA   3   4   7   8   9  10  11  12  14  17  18  19  20  21  22  23  24  25
  --------------------------------------------------------------------------    
  XX   1   2   5   6  13  15  16  26  27
 <><><><><><><><><><><><><><><><><><><><><><><><><><><><><><><><><><><>
  CLASS :         4008     MULTIPLICITY : 648     N. OF SYMM. OP. :   2
  CA   3   4   7   8   9  10  11  12  14  15  18  19  20  22  23  24  25  27
  --------------------------------------------------------------------------    
  XX   1   2   5   6  13  16  17  21  26
 <><><><><><><><><><><><><><><><><><><><><><><><><><><><><><><><><><><>
  CLASS :         4009     MULTIPLICITY : 648     N. OF SYMM. OP. :   2
  CA   3   4   7   8   9  10  11  12  14  15  18  19  20  22  23  24  25  26
  --------------------------------------------------------------------------    
  XX   1   2   5   6  13  16  17  21  27
 <><><><><><><><><><><><><><><><><><><><><><><><><><><><><><><><><><><>
  CLASS :         4010     MULTIPLICITY : 324     N. OF SYMM. OP. :   4
  CA   3   4   7   8   9  10  11  12  14  15  18  19  20  21  22  23  24  25
  --------------------------------------------------------------------------    
  XX   1   2   5   6  13  16  17  26  27
 <><><><><><><><><><><><><><><><><><><><><><><><><><><><><><><><><><><>
  CLASS :         4011     MULTIPLICITY :1296     N. OF SYMM. OP. :   1
  CA   3   4   7   8   9  10  11  12  14  15  17  18  19  20  22  23  24  27
  --------------------------------------------------------------------------    
  XX   1   2   5   6  13  16  21  25  26
 <><><><><><><><><><><><><><><><><><><><><><><><><><><><><><><><><><><>
  CLASS :         4012     MULTIPLICITY :1296     N. OF SYMM. OP. :   1
  CA   3   4   7   8   9  10  11  12  14  15  16  20  21  22  23  24  26  27
  --------------------------------------------------------------------------    
  XX   1   2   5   6  13  17  18  19  25
 <><><><><><><><><><><><><><><><><><><><><><><><><><><><><><><><><><><>
  CLASS :         4013     MULTIPLICITY :1296     N. OF SYMM. OP. :   1
  CA   3   4   7   8   9  10  11  12  14  15  16  20  21  22  23  24  25  26
  --------------------------------------------------------------------------    
  XX   1   2   5   6  13  17  18  19  27
 <><><><><><><><><><><><><><><><><><><><><><><><><><><><><><><><><><><>
  CLASS :         4014     MULTIPLICITY : 648     N. OF SYMM. OP. :   2
  CA   3   4   7   8   9  10  11  12  14  15  16  19  20  22  23  24  26  27
  --------------------------------------------------------------------------    
  XX   1   2   5   6  13  17  18  21  25
 <><><><><><><><><><><><><><><><><><><><><><><><><><><><><><><><><><><>
  CLASS :         4015     MULTIPLICITY : 648     N. OF SYMM. OP. :   2
  CA   3   4   7   8   9  10  11  12  14  15  16  19  20  21  22  23  24  26
  --------------------------------------------------------------------------    
  XX   1   2   5   6  13  17  18  25  27
 <><><><><><><><><><><><><><><><><><><><><><><><><><><><><><><><><><><>
  CLASS :         4016     MULTIPLICITY : 648     N. OF SYMM. OP. :   2
  CA   3   4   6   7   8  10  11  14  16  17  18  20  21  22  23  24  26  27
  --------------------------------------------------------------------------    
  XX   1   2   5   9  12  13  15  19  25
 <><><><><><><><><><><><><><><><><><><><><><><><><><><><><><><><><><><>
  CLASS :         4017     MULTIPLICITY : 324     N. OF SYMM. OP. :   4
  CA   3   4   6   7   8  10  11  14  16  17  18  19  20  21  23  24  26  27
  --------------------------------------------------------------------------    
  XX   1   2   5   9  12  13  15  22  25
 <><><><><><><><><><><><><><><><><><><><><><><><><><><><><><><><><><><>
  CLASS :         4018     MULTIPLICITY : 648     N. OF SYMM. OP. :   2
  CA   3   4   6   7   8  10  11  14  16  17  18  19  20  21  23  24  25  27
  --------------------------------------------------------------------------    
  XX   1   2   5   9  12  13  15  22  26
 <><><><><><><><><><><><><><><><><><><><><><><><><><><><><><><><><><><>
  CLASS :         4019     MULTIPLICITY : 648     N. OF SYMM. OP. :   2
  CA   3   4   6   7   8  10  11  14  16  17  18  19  20  21  22  23  24  27
  --------------------------------------------------------------------------    
  XX   1   2   5   9  12  13  15  25  26
 <><><><><><><><><><><><><><><><><><><><><><><><><><><><><><><><><><><>
  CLASS :         4020     MULTIPLICITY : 648     N. OF SYMM. OP. :   2
  CA   3   4   6   7   8  10  11  14  15  16  17  19  20  21  23  24  26  27
  --------------------------------------------------------------------------    
  XX   1   2   5   9  12  13  18  22  25
 <><><><><><><><><><><><><><><><><><><><><><><><><><><><><><><><><><><>
  CLASS :         4021     MULTIPLICITY : 108     N. OF SYMM. OP. :  12
  CA   3   4   6   7   8   9  10  11  13  14  15  16  19  20  21  23  26  27
  --------------------------------------------------------------------------    
  XX   1   2   5  12  17  18  22  24  25
   WARNING : THIS CONFIG CAN BE OBTAINED WITH A SMALLER CELL
 <><><><><><><><><><><><><><><><><><><><><><><><><><><><><><><><><><><>
  CLASS :         4022     MULTIPLICITY : 162     N. OF SYMM. OP. :   8
  CA   3   4   6   7   8   9  10  11  12  14  15  16  19  20  23  24  25  26
  --------------------------------------------------------------------------    
  XX   1   2   5  13  17  18  21  22  27
 <><><><><><><><><><><><><><><><><><><><><><><><><><><><><><><><><><><>
  CLASS :         4023     MULTIPLICITY :  72     N. OF SYMM. OP. :  18
  CA   3   4   6   7   8   9  10  11  12  13  16  17  20  21  22  23  24  26
  --------------------------------------------------------------------------    
  XX   1   2   5  14  15  18  19  25  27
   WARNING : THIS CONFIG CAN BE OBTAINED WITH A SMALLER CELL
 ===============================================================================
 INFORMATION **** CONFCOUNT **** CALCULATION COMPLETE
 TTTTTTTTTTTTTTTTTTTTTTTTTTTTTT END         TELAPSE        5.86 TCPU        5.81
 EEEEEEEEEE TERMINATION  DATE 04 05 2022 TIME 10:07:55.9
NODE    0 CPU TIME =         5.806
    TOTAL CPU TIME =       272.118
end_date Wed  4 May 10:07:56 BST 2022
Wed  4 May 10:07:56 BST 2022
 
TEMPORARY          SAVED (in /rds/general/user/bc713/home/classification/cao)
binary wf (fort.9) is not written on this node
fort.34            cao_CONFCNT.gui   320007   May 4 10:07
 
Disk usage:total 340
-rw-------. 1 bc713 hpc-nmh 320007 May  4 10:07 fort.34
-rw-------. 1 bc713 hpc-nmh     82 May  4 10:07 INPUT
-rw-------. 1 bc713 hpc-nmh  13160 May  4 10:05 runcryP
<du -m>
1	/var/tmp/pbs.5509774.pbs/cao_CONFCNT_3167481/
</du -m>
Filesystem     1K-blocks     Used Available Use% Mounted on
/dev/sda       937234648 20201932 917032716   3% /
/dev/sda       937234648 20201932 917032716   3% /
#########
node: cx3-1-5.cx3.hpc.ic.ac.uk
 
TEMPORARY          SAVED (in /rds/general/user/bc713/home/classification/cao)
binary wf (fort.9) is not written on this node
fort.34            cao_CONFCNT.gui   320007   May 4 10:07
 
Disk usage:total 356
-rwxr-xr-x. 1 bc713 hpc-nmh   7318 May  4 10:07 checkfile
-rwxr-xr-x. 1 bc713 hpc-nmh   7318 May  4 10:07 checkfile0
-rw-------. 1 bc713 hpc-nmh 320007 May  4 10:07 fort.34
-rw-------. 1 bc713 hpc-nmh     82 May  4 10:07 INPUT
-rw-------. 1 bc713 hpc-nmh  13160 May  4 10:05 runcryP
<du -m>
1	/var/tmp/pbs.5509774.pbs/cao_CONFCNT_3167481/
</du -m>
Filesystem     1K-blocks     Used Available Use% Mounted on
/dev/sda       937234648 20202016 917032632   3% /
/dev/sda       937234648 20202016 917032632   3% /
