date:                Wed 23 Mar 17:08:05 GMT 2022
hostname:            cx2-4-0-3.cx2.hpc.ic.ac.uk
system:              Linux cx2-4-0-3.cx2.hpc.ic.ac.uk 4.18.0-193.6.3.el8_2.x86_64 #1 SMP Wed Jun 10 11:09:32 UTC 2020 x86_64 x86_64 x86_64 GNU/Linux
user:                bc713
input:               /rds/general/user/bc713/home/classification/mgo_confrand.d12
output:              /rds/general/user/bc713/home/classification/mgo_confrand.out
executable script:   /rds/general/user/gmallia/home/CRYSTAL17_cx1/v2.2gnu/runcryP
executable dir:      /rds/general/user/bc713/home/../../gmallia/home/CRYSTAL17_cx1/v2.2gnu/bin/Linux-mpigfortran_MPP/Xeon___mpich__3.2.1
executables:     
                    -rwxr-xr-x. 1 gmallia hpc-nmh 40416696 Jul  5  2019 crystal
                    -rwxr-xr-x. 1 gmallia hpc-nmh    25145 Jul  5  2019 INFO
                    -rwxr-xr-x. 1 gmallia hpc-nmh       75 Jul  5  2019 INFO.module.bash
                    -rwxr-xr-x. 1 gmallia hpc-nmh      355 Jul  5  2019 INFO.module.csh
                    -rwxr-xr-x. 1 gmallia hpc-nmh 41994992 Jul  5  2019 MPPcrystal
                    -rwxr-xr-x. 1 gmallia hpc-nmh 40470904 Jul  5  2019 Pcrystal
                    -rwxr-xr-x. 1 gmallia hpc-nmh 40470904 Aug 21  2019 Pecrystal
                    -rwxr-xr-x. 1 gmallia hpc-nmh 10689448 Jul  5  2019 Pproperties
                    -rwxr-xr-x. 1 gmallia hpc-nmh 10633848 Jul  5  2019 properties
                    -rwxr-xr-x. 1 gmallia hpc-nmh      277 Jul  5  2019 README 

Command:             mpiexec  /rds/general/user/bc713/home/../../gmallia/home/CRYSTAL17_cx1/v2.2gnu/bin/Linux-mpigfortran_MPP/Xeon___mpich__3.2.1/Pcrystal
temporary directory: /rds/general/ephemeral/tmpdir/pbs.5336881.pbs/mgo_confrand_267610      
<qstat -f 5336881.pbs>
Connection timed out
qstat: cannot connect to server pbs (errno=110)
</qstat -f 5336881.pbs>
input data /rds/general/user/bc713/home/classification/mgo_confrand.d12
Prova LTS cubico
CRYSTAL
0 0 0
225
4.21   
2
12 0 0 0
8 0.5 0.5 0.5
SUPERCEL
-1 1 1
1 -1 1
1 1 -1
SCELCONF
3 0 0
0 3 0
0 0 3
EXTPRT
CONFCOUNT
1
1
ONLYCOMP
1
9
END
external geometry input found in /rds/general/user/bc713/home/classification/mgo_confrand.gui
          48 PROCESSORS WORKING

         
 *******************************************************************************
 *                                                                             *
 *                               CRYSTAL17                                     *
 *                      public : 1.0.2 - March 1st, 2018                       *
 *                       HTTP://WWW.CRYSTAL.UNITO.IT                           *
 *                                                                             *
 *                              MAIN AUTHORS                                   *
 *                                                                             *
 *  R. DOVESI(1,11), V.R. SAUNDERS(2), C. ROETTI(1,11), R. ORLANDO(1,11),      *
 *  C.M. ZICOVICH-WILSON(1,3), F. PASCALE(4), B. CIVALLERI(1,11),              *
 *  K. DOLL(5), N.M. HARRISON(2,6), I.J. BUSH(7), Ph. D'ARCO(8),               *
 *  M. LLUNELL(9), M. CAUSA'(10), Y. NOEL(8), L. MASCHIO(1,11), A. ERBA(1,11)  *
 *  M. RE'RAT(14), S. CASASSA(1,11)                                            *
 *                                                                             *
 *        CONTRIBUTIONS TO THE CODE HAVE ALSO BEEN GIVEN BY                    *
 *                                                                             *
 *  M. FERRABONE(1,11), M. DE LA PIERRE(1,11), M. FERRERO(1,11),               *
 *  J. BAIMA(1,11), E. ALBANESE(1,11), M.F. PEINTINGER(12), R. BAST(13),       *
 *  B. KIRTMAN(15), V. LACIVITA(1,11), R. DEMICHELIS(1,16)                     *
 *  G. BRANDEBURG(17), S. SALUSTRO(1,11), G. SANSONE(1,11)                     *
 *  M.T. RUGGIERO(18)                                                          *
 *                                                                             *
 * (1) THEORETICAL CHEMISTRY GROUP - UNIVERSITA' DI TORINO - TORINO (ITALY)    *
 * (2) COMPUTATIONAL SCIENCE & ENGINEERING DEPARTMENT - STFC DARESBURY (UK)    *
 * (3) UNIVERSIDAD AUTONOMA DEL ESTADO DE MORELOS - CUERNAVACA (MEXICO)        *
 * (4) UNIVERSITE' DE LORRAINE - NANCY (FRANCE)                                *
 * (5) UNIVERSITAET STUTTGART- STUTTGART (GERMANY)                             *
 * (6) IMPERIAL COLLEGE - LONDON (UK)                                          *
 * (7) OXFORD E-RESEARCH CENTRE - OXFORD (UK)                                  *
 * (8) UPMC - SORBONNE UNIVERSITES - PARIS (FRANCE)                            *
 * (9) UNIVERSIDAD DE BARCELONA - BARCELONA (SPAIN)                            *
 *(10) UNIVERSITA' DI NAPOLI "FEDERICO II" - NAPOLI (ITALY)                    *
 *(11) NIS - NANOSTRUCTURED INTERFACES AND SURFACES - TORINO (ITALY)           *
 *(12) MPI FUER CHEMISCHE ENERGIEKONVERSION - MUELHEIM AN DER RUHR (GERMANY)   *
 *(13) UNIVERSITY OF TROMSO - TROMSO (NORWAY)                                  *
 *(14) UNIVERSITE' DE PAU ET DES PAYS DE L'ADOUR - PAU (FRANCE)                *
 *(15) UNIVERSITY OF CALIFORNIA SANTA BARBARA - SANTA BARBARA (USA)            *
 *(16) CURTIN UNIVERSITY - PERTH (AUSTRALIA)                                   *
 *(17) UNIVERSITY COLLEGE LONDON - LONDON (UK)                                 *
 *(18) CAMBRIDGE UNIVERSITY - CAMBRIDGE (UK)                                   *
 *                                                                             *
 *******************************************************************************
 EEEEEEEEEE STARTING  DATE 23 03 2022 TIME 17:10:28.8
 Prova LTS cubico                                                                

 CRYSTAL CALCULATION
 (INPUT ACCORDING TO THE INTERNATIONAL TABLES FOR X-RAY CRYSTALLOGRAPHY)
 CRYSTAL FAMILY                       :  CUBIC       
 CRYSTAL CLASS  (GROTH - 1921)        :  CUBIC HEXAKISOCTAHEDRAL              

 SPACE GROUP (CENTROSYMMETRIC)        :  F M 3 M         

 LATTICE PARAMETERS  (ANGSTROMS AND DEGREES) - CONVENTIONAL CELL
        A           B           C        ALPHA        BETA       GAMMA
     4.21000     4.21000     4.21000    90.00000    90.00000    90.00000


 NUMBER OF IRREDUCIBLE ATOMS IN THE CONVENTIONAL CELL:    2

 INPUT COORDINATES

 ATOM AT. N.              COORDINATES
   1  12     0.000000000000E+00  0.000000000000E+00  0.000000000000E+00
   2   8     5.000000000000E-01  5.000000000000E-01  5.000000000000E-01

 *******************************************************************************

 << INFORMATION >>: FROM NOW ON, ALL COORDINATES REFER TO THE PRIMITIVE CELL

 *******************************************************************************

 LATTICE PARAMETERS  (ANGSTROMS AND DEGREES) - PRIMITIVE CELL
       A          B          C        ALPHA      BETA     GAMMA        VOLUME
    2.97692    2.97692    2.97692    60.00000  60.00000  60.00000     18.654615

 COORDINATES OF THE EQUIVALENT ATOMS (FRACTIONAL UNITS)

 N. ATOM EQUIV AT. N.          X                  Y                  Z

   1   1   1   12 MG    0.00000000000E+00  0.00000000000E+00  0.00000000000E+00

   2   2   1    8 O    -5.00000000000E-01 -5.00000000000E-01 -5.00000000000E-01

 NUMBER OF SYMMETRY OPERATORS         :   48
 *******************************************************************************
 * GEOMETRY EDITING - INPUT COORDINATES ARE GIVEN IN ANGSTROM         
 *******************************************************************************

 GEOMETRY NOW FULLY CONSISTENT WITH THE GROUP

 NO SYMMOPS WITH FINITE TRANSLATIONAL COMPONENT

 *******************************************************************************
 * SUPERCELL OPTION
 *******************************************************************************


        EXPANSION MATRIX OF PRIMITIVE CELL
 E1    -1.000     1.000     1.000
 E2     1.000    -1.000     1.000
 E3     1.000     1.000    -1.000

 NUMBER OF ATOMS PER SUPERCELL     8

        DIRECT LATTICE VECTORS COMPONENTS (ANGSTROM)
 B1     4.210     0.000     0.000
 B2     0.000     4.210     0.000
 B3     0.000     0.000     4.210

 LATTICE PARAMETERS  (ANGSTROM AND DEGREES)
       A          B          C         ALPHA     BETA     GAMMA        VOLUME
    4.21000    4.21000    4.21000    90.00000  90.00000  90.00000     74.618461


 **** ATOMS BELONGING TO THE SUPERCELL
 LABEL AT.NO.      COORDINATES (ANGSTROM AND FRACTIONAL)
     1    12     0.0000     0.0000     0.0000     0.0000     0.0000     0.0000
     2    12     2.1050     2.1050     0.0000     0.5000     0.5000     0.0000
     3    12     2.1050     0.0000     2.1050     0.5000     0.0000     0.5000
     4    12     0.0000     2.1050     2.1050     0.0000     0.5000     0.5000
     5     8     0.0000     0.0000     2.1050     0.0000     0.0000     0.5000
     6     8     2.1050     2.1050     2.1050     0.5000     0.5000     0.5000
     7     8     2.1050     0.0000     0.0000     0.5000     0.0000     0.0000
     8     8     0.0000     2.1050     0.0000     0.0000     0.5000     0.0000

 **************************** SUPERCELL GENERATED ****************************

 GCALCO - MAX INDICES DIRECT LATTICE VECTOR    14    14    14
 NO.OF VECTORS CREATED 6999 STARS  120 RMAX    49.99098 BOHR

 *******************************************************************************
 * SUPERCELL OPTION
 *******************************************************************************


        EXPANSION MATRIX OF PRIMITIVE CELL
 E1     3.000     0.000     0.000
 E2     0.000     3.000     0.000
 E3     0.000     0.000     3.000

 NUMBER OF ATOMS PER SUPERCELL   216

        DIRECT LATTICE VECTORS COMPONENTS (ANGSTROM)
 B1    12.630     0.000     0.000
 B2     0.000    12.630     0.000
 B3     0.000     0.000    12.630

 LATTICE PARAMETERS  (ANGSTROM AND DEGREES)
       A          B          C         ALPHA     BETA     GAMMA        VOLUME
   12.63000   12.63000   12.63000    90.00000  90.00000  90.00000   2014.698447


 **** ATOMS BELONGING TO THE SUPERCELL
 LABEL AT.NO.      COORDINATES (ANGSTROM AND FRACTIONAL)
     1    12     0.0000     0.0000     0.0000     0.0000     0.0000     0.0000
     2    12     0.0000     0.0000     4.2100     0.0000     0.0000     0.3333
     3    12     0.0000     0.0000    -4.2100     0.0000     0.0000    -0.3333
     4    12     0.0000     4.2100     0.0000     0.0000     0.3333     0.0000
     5    12     0.0000     4.2100     4.2100     0.0000     0.3333     0.3333
     6    12     0.0000     4.2100    -4.2100     0.0000     0.3333    -0.3333
     7    12     0.0000    -4.2100     0.0000     0.0000    -0.3333     0.0000
     8    12     0.0000    -4.2100     4.2100     0.0000    -0.3333     0.3333
     9    12     0.0000    -4.2100    -4.2100     0.0000    -0.3333    -0.3333
    10    12     4.2100     0.0000     0.0000     0.3333     0.0000     0.0000
    11    12     4.2100     0.0000     4.2100     0.3333     0.0000     0.3333
    12    12     4.2100     0.0000    -4.2100     0.3333     0.0000    -0.3333
    13    12     4.2100     4.2100     0.0000     0.3333     0.3333     0.0000
    14    12     4.2100     4.2100     4.2100     0.3333     0.3333     0.3333
    15    12     4.2100     4.2100    -4.2100     0.3333     0.3333    -0.3333
    16    12     4.2100    -4.2100     0.0000     0.3333    -0.3333     0.0000
    17    12     4.2100    -4.2100     4.2100     0.3333    -0.3333     0.3333
    18    12     4.2100    -4.2100    -4.2100     0.3333    -0.3333    -0.3333
    19    12    -4.2100     0.0000     0.0000    -0.3333     0.0000     0.0000
    20    12    -4.2100     0.0000     4.2100    -0.3333     0.0000     0.3333
    21    12    -4.2100     0.0000    -4.2100    -0.3333     0.0000    -0.3333
    22    12    -4.2100     4.2100     0.0000    -0.3333     0.3333     0.0000
    23    12    -4.2100     4.2100     4.2100    -0.3333     0.3333     0.3333
    24    12    -4.2100     4.2100    -4.2100    -0.3333     0.3333    -0.3333
    25    12    -4.2100    -4.2100     0.0000    -0.3333    -0.3333     0.0000
    26    12    -4.2100    -4.2100     4.2100    -0.3333    -0.3333     0.3333
    27    12    -4.2100    -4.2100    -4.2100    -0.3333    -0.3333    -0.3333
    28    12     2.1050     2.1050     0.0000     0.1667     0.1667     0.0000
    29    12     2.1050     2.1050     4.2100     0.1667     0.1667     0.3333
    30    12     2.1050     2.1050    -4.2100     0.1667     0.1667    -0.3333
    31    12     2.1050    -6.3150     0.0000     0.1667    -0.5000     0.0000
    32    12     2.1050    -6.3150     4.2100     0.1667    -0.5000     0.3333
    33    12     2.1050    -6.3150    -4.2100     0.1667    -0.5000    -0.3333
    34    12     2.1050    -2.1050     0.0000     0.1667    -0.1667     0.0000
    35    12     2.1050    -2.1050     4.2100     0.1667    -0.1667     0.3333
    36    12     2.1050    -2.1050    -4.2100     0.1667    -0.1667    -0.3333
    37    12    -6.3150     2.1050     0.0000    -0.5000     0.1667     0.0000
    38    12    -6.3150     2.1050     4.2100    -0.5000     0.1667     0.3333
    39    12    -6.3150     2.1050    -4.2100    -0.5000     0.1667    -0.3333
    40    12    -6.3150    -6.3150     0.0000    -0.5000    -0.5000     0.0000
    41    12    -6.3150    -6.3150     4.2100    -0.5000    -0.5000     0.3333
    42    12    -6.3150    -6.3150    -4.2100    -0.5000    -0.5000    -0.3333
    43    12    -6.3150    -2.1050     0.0000    -0.5000    -0.1667     0.0000
    44    12    -6.3150    -2.1050     4.2100    -0.5000    -0.1667     0.3333
    45    12    -6.3150    -2.1050    -4.2100    -0.5000    -0.1667    -0.3333
    46    12    -2.1050     2.1050     0.0000    -0.1667     0.1667     0.0000
    47    12    -2.1050     2.1050     4.2100    -0.1667     0.1667     0.3333
    48    12    -2.1050     2.1050    -4.2100    -0.1667     0.1667    -0.3333
    49    12    -2.1050    -6.3150     0.0000    -0.1667    -0.5000     0.0000
    50    12    -2.1050    -6.3150     4.2100    -0.1667    -0.5000     0.3333
    51    12    -2.1050    -6.3150    -4.2100    -0.1667    -0.5000    -0.3333
    52    12    -2.1050    -2.1050     0.0000    -0.1667    -0.1667     0.0000
    53    12    -2.1050    -2.1050     4.2100    -0.1667    -0.1667     0.3333
    54    12    -2.1050    -2.1050    -4.2100    -0.1667    -0.1667    -0.3333
    55    12     2.1050     0.0000     2.1050     0.1667     0.0000     0.1667
    56    12     2.1050     0.0000    -6.3150     0.1667     0.0000    -0.5000
    57    12     2.1050     0.0000    -2.1050     0.1667     0.0000    -0.1667
    58    12     2.1050     4.2100     2.1050     0.1667     0.3333     0.1667
    59    12     2.1050     4.2100    -6.3150     0.1667     0.3333    -0.5000
    60    12     2.1050     4.2100    -2.1050     0.1667     0.3333    -0.1667
    61    12     2.1050    -4.2100     2.1050     0.1667    -0.3333     0.1667
    62    12     2.1050    -4.2100    -6.3150     0.1667    -0.3333    -0.5000
    63    12     2.1050    -4.2100    -2.1050     0.1667    -0.3333    -0.1667
    64    12    -6.3150     0.0000     2.1050    -0.5000     0.0000     0.1667
    65    12    -6.3150     0.0000    -6.3150    -0.5000     0.0000    -0.5000
    66    12    -6.3150     0.0000    -2.1050    -0.5000     0.0000    -0.1667
    67    12    -6.3150     4.2100     2.1050    -0.5000     0.3333     0.1667
    68    12    -6.3150     4.2100    -6.3150    -0.5000     0.3333    -0.5000
    69    12    -6.3150     4.2100    -2.1050    -0.5000     0.3333    -0.1667
    70    12    -6.3150    -4.2100     2.1050    -0.5000    -0.3333     0.1667
    71    12    -6.3150    -4.2100    -6.3150    -0.5000    -0.3333    -0.5000
    72    12    -6.3150    -4.2100    -2.1050    -0.5000    -0.3333    -0.1667
    73    12    -2.1050     0.0000     2.1050    -0.1667     0.0000     0.1667
    74    12    -2.1050     0.0000    -6.3150    -0.1667     0.0000    -0.5000
    75    12    -2.1050     0.0000    -2.1050    -0.1667     0.0000    -0.1667
    76    12    -2.1050     4.2100     2.1050    -0.1667     0.3333     0.1667
    77    12    -2.1050     4.2100    -6.3150    -0.1667     0.3333    -0.5000
    78    12    -2.1050     4.2100    -2.1050    -0.1667     0.3333    -0.1667
    79    12    -2.1050    -4.2100     2.1050    -0.1667    -0.3333     0.1667
    80    12    -2.1050    -4.2100    -6.3150    -0.1667    -0.3333    -0.5000
    81    12    -2.1050    -4.2100    -2.1050    -0.1667    -0.3333    -0.1667
    82    12     0.0000     2.1050     2.1050     0.0000     0.1667     0.1667
    83    12     0.0000     2.1050    -6.3150     0.0000     0.1667    -0.5000
    84    12     0.0000     2.1050    -2.1050     0.0000     0.1667    -0.1667
    85    12     0.0000    -6.3150     2.1050     0.0000    -0.5000     0.1667
    86    12     0.0000    -6.3150    -6.3150     0.0000    -0.5000    -0.5000
    87    12     0.0000    -6.3150    -2.1050     0.0000    -0.5000    -0.1667
    88    12     0.0000    -2.1050     2.1050     0.0000    -0.1667     0.1667
    89    12     0.0000    -2.1050    -6.3150     0.0000    -0.1667    -0.5000
    90    12     0.0000    -2.1050    -2.1050     0.0000    -0.1667    -0.1667
    91    12     4.2100     2.1050     2.1050     0.3333     0.1667     0.1667
    92    12     4.2100     2.1050    -6.3150     0.3333     0.1667    -0.5000
    93    12     4.2100     2.1050    -2.1050     0.3333     0.1667    -0.1667
    94    12     4.2100    -6.3150     2.1050     0.3333    -0.5000     0.1667
    95    12     4.2100    -6.3150    -6.3150     0.3333    -0.5000    -0.5000
    96    12     4.2100    -6.3150    -2.1050     0.3333    -0.5000    -0.1667
    97    12     4.2100    -2.1050     2.1050     0.3333    -0.1667     0.1667
    98    12     4.2100    -2.1050    -6.3150     0.3333    -0.1667    -0.5000
    99    12     4.2100    -2.1050    -2.1050     0.3333    -0.1667    -0.1667
   100    12    -4.2100     2.1050     2.1050    -0.3333     0.1667     0.1667
   101    12    -4.2100     2.1050    -6.3150    -0.3333     0.1667    -0.5000
   102    12    -4.2100     2.1050    -2.1050    -0.3333     0.1667    -0.1667
   103    12    -4.2100    -6.3150     2.1050    -0.3333    -0.5000     0.1667
   104    12    -4.2100    -6.3150    -6.3150    -0.3333    -0.5000    -0.5000
   105    12    -4.2100    -6.3150    -2.1050    -0.3333    -0.5000    -0.1667
   106    12    -4.2100    -2.1050     2.1050    -0.3333    -0.1667     0.1667
   107    12    -4.2100    -2.1050    -6.3150    -0.3333    -0.1667    -0.5000
   108    12    -4.2100    -2.1050    -2.1050    -0.3333    -0.1667    -0.1667
   109     8     0.0000     0.0000     2.1050     0.0000     0.0000     0.1667
   110     8     0.0000     0.0000    -6.3150     0.0000     0.0000    -0.5000
   111     8     0.0000     0.0000    -2.1050     0.0000     0.0000    -0.1667
   112     8     0.0000     4.2100     2.1050     0.0000     0.3333     0.1667
   113     8     0.0000     4.2100    -6.3150     0.0000     0.3333    -0.5000
   114     8     0.0000     4.2100    -2.1050     0.0000     0.3333    -0.1667
   115     8     0.0000    -4.2100     2.1050     0.0000    -0.3333     0.1667
   116     8     0.0000    -4.2100    -6.3150     0.0000    -0.3333    -0.5000
   117     8     0.0000    -4.2100    -2.1050     0.0000    -0.3333    -0.1667
   118     8     4.2100     0.0000     2.1050     0.3333     0.0000     0.1667
   119     8     4.2100     0.0000    -6.3150     0.3333     0.0000    -0.5000
   120     8     4.2100     0.0000    -2.1050     0.3333     0.0000    -0.1667
   121     8     4.2100     4.2100     2.1050     0.3333     0.3333     0.1667
   122     8     4.2100     4.2100    -6.3150     0.3333     0.3333    -0.5000
   123     8     4.2100     4.2100    -2.1050     0.3333     0.3333    -0.1667
   124     8     4.2100    -4.2100     2.1050     0.3333    -0.3333     0.1667
   125     8     4.2100    -4.2100    -6.3150     0.3333    -0.3333    -0.5000
   126     8     4.2100    -4.2100    -2.1050     0.3333    -0.3333    -0.1667
   127     8    -4.2100     0.0000     2.1050    -0.3333     0.0000     0.1667
   128     8    -4.2100     0.0000    -6.3150    -0.3333     0.0000    -0.5000
   129     8    -4.2100     0.0000    -2.1050    -0.3333     0.0000    -0.1667
   130     8    -4.2100     4.2100     2.1050    -0.3333     0.3333     0.1667
   131     8    -4.2100     4.2100    -6.3150    -0.3333     0.3333    -0.5000
   132     8    -4.2100     4.2100    -2.1050    -0.3333     0.3333    -0.1667
   133     8    -4.2100    -4.2100     2.1050    -0.3333    -0.3333     0.1667
   134     8    -4.2100    -4.2100    -6.3150    -0.3333    -0.3333    -0.5000
   135     8    -4.2100    -4.2100    -2.1050    -0.3333    -0.3333    -0.1667
   136     8     2.1050     2.1050     2.1050     0.1667     0.1667     0.1667
   137     8     2.1050     2.1050    -6.3150     0.1667     0.1667    -0.5000
   138     8     2.1050     2.1050    -2.1050     0.1667     0.1667    -0.1667
   139     8     2.1050    -6.3150     2.1050     0.1667    -0.5000     0.1667
   140     8     2.1050    -6.3150    -6.3150     0.1667    -0.5000    -0.5000
   141     8     2.1050    -6.3150    -2.1050     0.1667    -0.5000    -0.1667
   142     8     2.1050    -2.1050     2.1050     0.1667    -0.1667     0.1667
   143     8     2.1050    -2.1050    -6.3150     0.1667    -0.1667    -0.5000
   144     8     2.1050    -2.1050    -2.1050     0.1667    -0.1667    -0.1667
   145     8    -6.3150     2.1050     2.1050    -0.5000     0.1667     0.1667
   146     8    -6.3150     2.1050    -6.3150    -0.5000     0.1667    -0.5000
   147     8    -6.3150     2.1050    -2.1050    -0.5000     0.1667    -0.1667
   148     8    -6.3150    -6.3150     2.1050    -0.5000    -0.5000     0.1667
   149     8    -6.3150    -6.3150    -6.3150    -0.5000    -0.5000    -0.5000
   150     8    -6.3150    -6.3150    -2.1050    -0.5000    -0.5000    -0.1667
   151     8    -6.3150    -2.1050     2.1050    -0.5000    -0.1667     0.1667
   152     8    -6.3150    -2.1050    -6.3150    -0.5000    -0.1667    -0.5000
   153     8    -6.3150    -2.1050    -2.1050    -0.5000    -0.1667    -0.1667
   154     8    -2.1050     2.1050     2.1050    -0.1667     0.1667     0.1667
   155     8    -2.1050     2.1050    -6.3150    -0.1667     0.1667    -0.5000
   156     8    -2.1050     2.1050    -2.1050    -0.1667     0.1667    -0.1667
   157     8    -2.1050    -6.3150     2.1050    -0.1667    -0.5000     0.1667
   158     8    -2.1050    -6.3150    -6.3150    -0.1667    -0.5000    -0.5000
   159     8    -2.1050    -6.3150    -2.1050    -0.1667    -0.5000    -0.1667
   160     8    -2.1050    -2.1050     2.1050    -0.1667    -0.1667     0.1667
   161     8    -2.1050    -2.1050    -6.3150    -0.1667    -0.1667    -0.5000
   162     8    -2.1050    -2.1050    -2.1050    -0.1667    -0.1667    -0.1667
   163     8     2.1050     0.0000     0.0000     0.1667     0.0000     0.0000
   164     8     2.1050     0.0000     4.2100     0.1667     0.0000     0.3333
   165     8     2.1050     0.0000    -4.2100     0.1667     0.0000    -0.3333
   166     8     2.1050     4.2100     0.0000     0.1667     0.3333     0.0000
   167     8     2.1050     4.2100     4.2100     0.1667     0.3333     0.3333
   168     8     2.1050     4.2100    -4.2100     0.1667     0.3333    -0.3333
   169     8     2.1050    -4.2100     0.0000     0.1667    -0.3333     0.0000
   170     8     2.1050    -4.2100     4.2100     0.1667    -0.3333     0.3333
   171     8     2.1050    -4.2100    -4.2100     0.1667    -0.3333    -0.3333
   172     8    -6.3150     0.0000     0.0000    -0.5000     0.0000     0.0000
   173     8    -6.3150     0.0000     4.2100    -0.5000     0.0000     0.3333
   174     8    -6.3150     0.0000    -4.2100    -0.5000     0.0000    -0.3333
   175     8    -6.3150     4.2100     0.0000    -0.5000     0.3333     0.0000
   176     8    -6.3150     4.2100     4.2100    -0.5000     0.3333     0.3333
   177     8    -6.3150     4.2100    -4.2100    -0.5000     0.3333    -0.3333
   178     8    -6.3150    -4.2100     0.0000    -0.5000    -0.3333     0.0000
   179     8    -6.3150    -4.2100     4.2100    -0.5000    -0.3333     0.3333
   180     8    -6.3150    -4.2100    -4.2100    -0.5000    -0.3333    -0.3333
   181     8    -2.1050     0.0000     0.0000    -0.1667     0.0000     0.0000
   182     8    -2.1050     0.0000     4.2100    -0.1667     0.0000     0.3333
   183     8    -2.1050     0.0000    -4.2100    -0.1667     0.0000    -0.3333
   184     8    -2.1050     4.2100     0.0000    -0.1667     0.3333     0.0000
   185     8    -2.1050     4.2100     4.2100    -0.1667     0.3333     0.3333
   186     8    -2.1050     4.2100    -4.2100    -0.1667     0.3333    -0.3333
   187     8    -2.1050    -4.2100     0.0000    -0.1667    -0.3333     0.0000
   188     8    -2.1050    -4.2100     4.2100    -0.1667    -0.3333     0.3333
   189     8    -2.1050    -4.2100    -4.2100    -0.1667    -0.3333    -0.3333
   190     8     0.0000     2.1050     0.0000     0.0000     0.1667     0.0000
   191     8     0.0000     2.1050     4.2100     0.0000     0.1667     0.3333
   192     8     0.0000     2.1050    -4.2100     0.0000     0.1667    -0.3333
   193     8     0.0000    -6.3150     0.0000     0.0000    -0.5000     0.0000
   194     8     0.0000    -6.3150     4.2100     0.0000    -0.5000     0.3333
   195     8     0.0000    -6.3150    -4.2100     0.0000    -0.5000    -0.3333
   196     8     0.0000    -2.1050     0.0000     0.0000    -0.1667     0.0000
   197     8     0.0000    -2.1050     4.2100     0.0000    -0.1667     0.3333
   198     8     0.0000    -2.1050    -4.2100     0.0000    -0.1667    -0.3333
   199     8     4.2100     2.1050     0.0000     0.3333     0.1667     0.0000
   200     8     4.2100     2.1050     4.2100     0.3333     0.1667     0.3333
   201     8     4.2100     2.1050    -4.2100     0.3333     0.1667    -0.3333
   202     8     4.2100    -6.3150     0.0000     0.3333    -0.5000     0.0000
   203     8     4.2100    -6.3150     4.2100     0.3333    -0.5000     0.3333
   204     8     4.2100    -6.3150    -4.2100     0.3333    -0.5000    -0.3333
   205     8     4.2100    -2.1050     0.0000     0.3333    -0.1667     0.0000
   206     8     4.2100    -2.1050     4.2100     0.3333    -0.1667     0.3333
   207     8     4.2100    -2.1050    -4.2100     0.3333    -0.1667    -0.3333
   208     8    -4.2100     2.1050     0.0000    -0.3333     0.1667     0.0000
   209     8    -4.2100     2.1050     4.2100    -0.3333     0.1667     0.3333
   210     8    -4.2100     2.1050    -4.2100    -0.3333     0.1667    -0.3333
   211     8    -4.2100    -6.3150     0.0000    -0.3333    -0.5000     0.0000
   212     8    -4.2100    -6.3150     4.2100    -0.3333    -0.5000     0.3333
   213     8    -4.2100    -6.3150    -4.2100    -0.3333    -0.5000    -0.3333
   214     8    -4.2100    -2.1050     0.0000    -0.3333    -0.1667     0.0000
   215     8    -4.2100    -2.1050     4.2100    -0.3333    -0.1667     0.3333
   216     8    -4.2100    -2.1050    -4.2100    -0.3333    -0.1667    -0.3333

 **************************** SUPERCELL GENERATED ****************************

 CONSTRUCTION OF SUPERCELL PRODUCT GROUP


     SUPERCELL MATRIX

  3.00000 0.00000 0.00000
  0.00000 3.00000 0.00000
  0.00000 0.00000 3.00000


     INVERSE SUPERCELL MATRIX

  0.33333 0.00000 0.00000
  0.00000 0.33333 0.00000
  0.00000 0.00000 0.33333


 LABEL AT.NO.      COORDINATES (ANGSTROM)
     1    12     0.0000     0.0000     0.0000
     2    12     0.0000     0.0000     4.2100
     3    12     0.0000     0.0000    -4.2100
     4    12     0.0000     4.2100     0.0000
     5    12     0.0000     4.2100     4.2100
     6    12     0.0000     4.2100    -4.2100
     7    12     0.0000    -4.2100     0.0000
     8    12     0.0000    -4.2100     4.2100
     9    12     0.0000    -4.2100    -4.2100
    10    12     4.2100     0.0000     0.0000
    11    12     4.2100     0.0000     4.2100
    12    12     4.2100     0.0000    -4.2100
    13    12     4.2100     4.2100     0.0000
    14    12     4.2100     4.2100     4.2100
    15    12     4.2100     4.2100    -4.2100
    16    12     4.2100    -4.2100     0.0000
    17    12     4.2100    -4.2100     4.2100
    18    12     4.2100    -4.2100    -4.2100
    19    12    -4.2100     0.0000     0.0000
    20    12    -4.2100     0.0000     4.2100
    21    12    -4.2100     0.0000    -4.2100
    22    12    -4.2100     4.2100     0.0000
    23    12    -4.2100     4.2100     4.2100
    24    12    -4.2100     4.2100    -4.2100
    25    12    -4.2100    -4.2100     0.0000
    26    12    -4.2100    -4.2100     4.2100
    27    12    -4.2100    -4.2100    -4.2100
    28    12     2.1050     2.1050     0.0000
    29    12     2.1050     2.1050     4.2100
    30    12     2.1050     2.1050    -4.2100
    31    12     2.1050    -6.3150     0.0000
    32    12     2.1050    -6.3150     4.2100
    33    12     2.1050    -6.3150    -4.2100
    34    12     2.1050    -2.1050     0.0000
    35    12     2.1050    -2.1050     4.2100
    36    12     2.1050    -2.1050    -4.2100
    37    12    -6.3150     2.1050     0.0000
    38    12    -6.3150     2.1050     4.2100
    39    12    -6.3150     2.1050    -4.2100
    40    12    -6.3150    -6.3150     0.0000
    41    12    -6.3150    -6.3150     4.2100
    42    12    -6.3150    -6.3150    -4.2100
    43    12    -6.3150    -2.1050     0.0000
    44    12    -6.3150    -2.1050     4.2100
    45    12    -6.3150    -2.1050    -4.2100
    46    12    -2.1050     2.1050     0.0000
    47    12    -2.1050     2.1050     4.2100
    48    12    -2.1050     2.1050    -4.2100
    49    12    -2.1050    -6.3150     0.0000
    50    12    -2.1050    -6.3150     4.2100
    51    12    -2.1050    -6.3150    -4.2100
    52    12    -2.1050    -2.1050     0.0000
    53    12    -2.1050    -2.1050     4.2100
    54    12    -2.1050    -2.1050    -4.2100
    55    12     2.1050     0.0000     2.1050
    56    12     2.1050     0.0000    -6.3150
    57    12     2.1050     0.0000    -2.1050
    58    12     2.1050     4.2100     2.1050
    59    12     2.1050     4.2100    -6.3150
    60    12     2.1050     4.2100    -2.1050
    61    12     2.1050    -4.2100     2.1050
    62    12     2.1050    -4.2100    -6.3150
    63    12     2.1050    -4.2100    -2.1050
    64    12    -6.3150     0.0000     2.1050
    65    12    -6.3150     0.0000    -6.3150
    66    12    -6.3150     0.0000    -2.1050
    67    12    -6.3150     4.2100     2.1050
    68    12    -6.3150     4.2100    -6.3150
    69    12    -6.3150     4.2100    -2.1050
    70    12    -6.3150    -4.2100     2.1050
    71    12    -6.3150    -4.2100    -6.3150
    72    12    -6.3150    -4.2100    -2.1050
    73    12    -2.1050     0.0000     2.1050
    74    12    -2.1050     0.0000    -6.3150
    75    12    -2.1050     0.0000    -2.1050
    76    12    -2.1050     4.2100     2.1050
    77    12    -2.1050     4.2100    -6.3150
    78    12    -2.1050     4.2100    -2.1050
    79    12    -2.1050    -4.2100     2.1050
    80    12    -2.1050    -4.2100    -6.3150
    81    12    -2.1050    -4.2100    -2.1050
    82    12     0.0000     2.1050     2.1050
    83    12     0.0000     2.1050    -6.3150
    84    12     0.0000     2.1050    -2.1050
    85    12     0.0000    -6.3150     2.1050
    86    12     0.0000    -6.3150    -6.3150
    87    12     0.0000    -6.3150    -2.1050
    88    12     0.0000    -2.1050     2.1050
    89    12     0.0000    -2.1050    -6.3150
    90    12     0.0000    -2.1050    -2.1050
    91    12     4.2100     2.1050     2.1050
    92    12     4.2100     2.1050    -6.3150
    93    12     4.2100     2.1050    -2.1050
    94    12     4.2100    -6.3150     2.1050
    95    12     4.2100    -6.3150    -6.3150
    96    12     4.2100    -6.3150    -2.1050
    97    12     4.2100    -2.1050     2.1050
    98    12     4.2100    -2.1050    -6.3150
    99    12     4.2100    -2.1050    -2.1050
   100    12    -4.2100     2.1050     2.1050
   101    12    -4.2100     2.1050    -6.3150
   102    12    -4.2100     2.1050    -2.1050
   103    12    -4.2100    -6.3150     2.1050
   104    12    -4.2100    -6.3150    -6.3150
   105    12    -4.2100    -6.3150    -2.1050
   106    12    -4.2100    -2.1050     2.1050
   107    12    -4.2100    -2.1050    -6.3150
   108    12    -4.2100    -2.1050    -2.1050
   109     8     0.0000     0.0000     2.1050
   110     8     0.0000     0.0000    -6.3150
   111     8     0.0000     0.0000    -2.1050
   112     8     0.0000     4.2100     2.1050
   113     8     0.0000     4.2100    -6.3150
   114     8     0.0000     4.2100    -2.1050
   115     8     0.0000    -4.2100     2.1050
   116     8     0.0000    -4.2100    -6.3150
   117     8     0.0000    -4.2100    -2.1050
   118     8     4.2100     0.0000     2.1050
   119     8     4.2100     0.0000    -6.3150
   120     8     4.2100     0.0000    -2.1050
   121     8     4.2100     4.2100     2.1050
   122     8     4.2100     4.2100    -6.3150
   123     8     4.2100     4.2100    -2.1050
   124     8     4.2100    -4.2100     2.1050
   125     8     4.2100    -4.2100    -6.3150
   126     8     4.2100    -4.2100    -2.1050
   127     8    -4.2100     0.0000     2.1050
   128     8    -4.2100     0.0000    -6.3150
   129     8    -4.2100     0.0000    -2.1050
   130     8    -4.2100     4.2100     2.1050
   131     8    -4.2100     4.2100    -6.3150
   132     8    -4.2100     4.2100    -2.1050
   133     8    -4.2100    -4.2100     2.1050
   134     8    -4.2100    -4.2100    -6.3150
   135     8    -4.2100    -4.2100    -2.1050
   136     8     2.1050     2.1050     2.1050
   137     8     2.1050     2.1050    -6.3150
   138     8     2.1050     2.1050    -2.1050
   139     8     2.1050    -6.3150     2.1050
   140     8     2.1050    -6.3150    -6.3150
   141     8     2.1050    -6.3150    -2.1050
   142     8     2.1050    -2.1050     2.1050
   143     8     2.1050    -2.1050    -6.3150
   144     8     2.1050    -2.1050    -2.1050
   145     8    -6.3150     2.1050     2.1050
   146     8    -6.3150     2.1050    -6.3150
   147     8    -6.3150     2.1050    -2.1050
   148     8    -6.3150    -6.3150     2.1050
   149     8    -6.3150    -6.3150    -6.3150
   150     8    -6.3150    -6.3150    -2.1050
   151     8    -6.3150    -2.1050     2.1050
   152     8    -6.3150    -2.1050    -6.3150
   153     8    -6.3150    -2.1050    -2.1050
   154     8    -2.1050     2.1050     2.1050
   155     8    -2.1050     2.1050    -6.3150
   156     8    -2.1050     2.1050    -2.1050
   157     8    -2.1050    -6.3150     2.1050
   158     8    -2.1050    -6.3150    -6.3150
   159     8    -2.1050    -6.3150    -2.1050
   160     8    -2.1050    -2.1050     2.1050
   161     8    -2.1050    -2.1050    -6.3150
   162     8    -2.1050    -2.1050    -2.1050
   163     8     2.1050     0.0000     0.0000
   164     8     2.1050     0.0000     4.2100
   165     8     2.1050     0.0000    -4.2100
   166     8     2.1050     4.2100     0.0000
   167     8     2.1050     4.2100     4.2100
   168     8     2.1050     4.2100    -4.2100
   169     8     2.1050    -4.2100     0.0000
   170     8     2.1050    -4.2100     4.2100
   171     8     2.1050    -4.2100    -4.2100
   172     8    -6.3150     0.0000     0.0000
   173     8    -6.3150     0.0000     4.2100
   174     8    -6.3150     0.0000    -4.2100
   175     8    -6.3150     4.2100     0.0000
   176     8    -6.3150     4.2100     4.2100
   177     8    -6.3150     4.2100    -4.2100
   178     8    -6.3150    -4.2100     0.0000
   179     8    -6.3150    -4.2100     4.2100
   180     8    -6.3150    -4.2100    -4.2100
   181     8    -2.1050     0.0000     0.0000
   182     8    -2.1050     0.0000     4.2100
   183     8    -2.1050     0.0000    -4.2100
   184     8    -2.1050     4.2100     0.0000
   185     8    -2.1050     4.2100     4.2100
   186     8    -2.1050     4.2100    -4.2100
   187     8    -2.1050    -4.2100     0.0000
   188     8    -2.1050    -4.2100     4.2100
   189     8    -2.1050    -4.2100    -4.2100
   190     8     0.0000     2.1050     0.0000
   191     8     0.0000     2.1050     4.2100
   192     8     0.0000     2.1050    -4.2100
   193     8     0.0000    -6.3150     0.0000
   194     8     0.0000    -6.3150     4.2100
   195     8     0.0000    -6.3150    -4.2100
   196     8     0.0000    -2.1050     0.0000
   197     8     0.0000    -2.1050     4.2100
   198     8     0.0000    -2.1050    -4.2100
   199     8     4.2100     2.1050     0.0000
   200     8     4.2100     2.1050     4.2100
   201     8     4.2100     2.1050    -4.2100
   202     8     4.2100    -6.3150     0.0000
   203     8     4.2100    -6.3150     4.2100
   204     8     4.2100    -6.3150    -4.2100
   205     8     4.2100    -2.1050     0.0000
   206     8     4.2100    -2.1050     4.2100
   207     8     4.2100    -2.1050    -4.2100
   208     8    -4.2100     2.1050     0.0000
   209     8    -4.2100     2.1050     4.2100
   210     8    -4.2100     2.1050    -4.2100
   211     8    -4.2100    -6.3150     0.0000
   212     8    -4.2100    -6.3150     4.2100
   213     8    -4.2100    -6.3150    -4.2100
   214     8    -4.2100    -2.1050     0.0000
   215     8    -4.2100    -2.1050     4.2100
   216     8    -4.2100    -2.1050    -4.2100

 ***** 1296 SYMMOPS - TRANSLATORS IN ANGSTROM
 ***** MATRICES AND TRANSLATORS IN THE CARTESIAN REFERENCE FRAME

 ORDER   : ORDER OF THE OPERATOR

 TRANSLA : REAL TRANSLATION (WITHOUT ORIGIN SHIFT) IN CARTESIAN COORDINATES

 uvw/hkl : ORIENTATION OF THE OPERATOR IN CARTESIAN COORDINATES

 LOCATED : ORIGIN OF THE OPERATOR IN CARTESIAN COORDINATES

   NO.   1 INVERSE   1    ORDER   1        NO.   2 INVERSE   2    ORDER   2
    1.000   0.000   0.000     0.000        -1.000   0.000   0.000     0.000
    0.000   1.000   0.000     0.000         0.000  -1.000   0.000     0.000
    0.000   0.000   1.000     0.000         0.000   0.000   1.000     0.000
             OPERATION E(   1)                       OPERATION C(   2)
 DETERMINANT 1.; ROTATION(DEG)   0.      DETERMINANT 1.; ROTATION(DEG) 180.
 TRANSLA (  0.000    0.000    0.000)     TRANSLA (  0.000    0.000    0.000)
 uvw/hkl (  0.000    0.000    0.000)     uvw/hkl (  0.000    0.000    4.000)
 LOCATED (  0.000    0.000    0.000)     LOCATED ( -0.000   -0.000    0.000)

   NO.   3 INVERSE   3    ORDER   2        NO.   4 INVERSE   4    ORDER   2
    1.000   0.000   0.000     0.000        -1.000   0.000   0.000     0.000
    0.000  -1.000   0.000     0.000         0.000   1.000   0.000     0.000
    0.000   0.000  -1.000     0.000         0.000   0.000  -1.000     0.000
             OPERATION C(   2)                       OPERATION C(   2)
 DETERMINANT 1.; ROTATION(DEG) 180.      DETERMINANT 1.; ROTATION(DEG) 180.
 TRANSLA (  0.000    0.000    0.000)     TRANSLA (  0.000    0.000    0.000)
 uvw/hkl (  4.000    0.000    0.000)     uvw/hkl ( -0.000   -4.000   -0.000)
 LOCATED (  0.000   -0.000   -0.000)     LOCATED ( -0.000    0.000   -0.000)

   NO.   5 INVERSE   6    ORDER   3        NO.   6 INVERSE   5    ORDER   3
    0.000   0.000   1.000     0.000         0.000   1.000   0.000     0.000
    1.000   0.000   0.000     0.000         0.000   0.000   1.000     0.000
    0.000   1.000   0.000     0.000         1.000   0.000   0.000     0.000
             OPERATION C(   3)                       OPERATION C(   3)
 DETERMINANT 1.; ROTATION(DEG) 120.      DETERMINANT 1.; ROTATION(DEG) 120.
 TRANSLA (  0.000    0.000    0.000)     TRANSLA (  0.000    0.000    0.000)
 uvw/hkl (  1.000    1.000    1.000)     uvw/hkl (  1.000    1.000    1.000)
 LOCATED ( -0.000   -0.000    0.000)     LOCATED ( -0.000   -0.000    0.000)

   NO.   7 INVERSE   8    ORDER   3        NO.   8 INVERSE   7    ORDER   3
    0.000   0.000  -1.000     0.000         0.000  -1.000   0.000     0.000
   -1.000   0.000   0.000     0.000         0.000   0.000   1.000     0.000
    0.000   1.000   0.000     0.000        -1.000   0.000   0.000     0.000
             OPERATION C(   3)                       OPERATION C(   3)
 DETERMINANT 1.; ROTATION(DEG) 120.      DETERMINANT 1.; ROTATION(DEG) 120.
 TRANSLA (  0.000    0.000    0.000)     TRANSLA (  0.000    0.000    0.000)
 uvw/hkl ( -1.000    1.000    1.000)     uvw/hkl ( -1.000    1.000    1.000)
 LOCATED ( -0.000    0.000    0.000)     LOCATED (  0.000   -0.000    0.000)

   NO.   9 INVERSE  10    ORDER   3        NO.  10 INVERSE   9    ORDER   3
    0.000   0.000   1.000     0.000         0.000  -1.000   0.000     0.000
   -1.000   0.000   0.000     0.000         0.000   0.000  -1.000     0.000
    0.000  -1.000   0.000     0.000         1.000   0.000   0.000     0.000
             OPERATION C(   3)                       OPERATION C(   3)
 DETERMINANT 1.; ROTATION(DEG) 120.      DETERMINANT 1.; ROTATION(DEG) 120.
 TRANSLA (  0.000    0.000    0.000)     TRANSLA (  0.000    0.000    0.000)
 uvw/hkl (  1.000   -1.000    1.000)     uvw/hkl (  1.000   -1.000    1.000)
 LOCATED ( -0.000    0.000    0.000)     LOCATED (  0.000   -0.000    0.000)

   NO.  11 INVERSE  12    ORDER   3        NO.  12 INVERSE  11    ORDER   3
    0.000   0.000  -1.000     0.000         0.000   1.000   0.000     0.000
    1.000   0.000   0.000     0.000         0.000   0.000  -1.000     0.000
    0.000  -1.000   0.000     0.000        -1.000   0.000   0.000     0.000
             OPERATION C(   3)                       OPERATION C(   3)
 DETERMINANT 1.; ROTATION(DEG) 120.      DETERMINANT 1.; ROTATION(DEG) 120.
 TRANSLA (  0.000    0.000    0.000)     TRANSLA (  0.000    0.000    0.000)
 uvw/hkl ( -1.000   -1.000    1.000)     uvw/hkl ( -1.000   -1.000    1.000)
 LOCATED ( -0.000   -0.000    0.000)     LOCATED ( -0.000   -0.000    0.000)

   NO.  13 INVERSE  13    ORDER   2        NO.  14 INVERSE  14    ORDER   2
    0.000  -1.000   0.000     0.000         0.000   1.000   0.000     0.000
   -1.000   0.000   0.000     0.000         1.000   0.000   0.000     0.000
    0.000   0.000  -1.000     0.000         0.000   0.000  -1.000     0.000
             OPERATION C(   2)                       OPERATION C(   2)
 DETERMINANT 1.; ROTATION(DEG) 180.      DETERMINANT 1.; ROTATION(DEG) 180.
 TRANSLA (  0.000    0.000    0.000)     TRANSLA (  0.000    0.000    0.000)
 uvw/hkl (  2.000   -2.000    0.000)     uvw/hkl ( -2.000   -2.000   -0.000)
 LOCATED ( -0.000    0.000   -0.000)     LOCATED ( -0.000    0.000   -0.000)

   NO.  15 INVERSE  16    ORDER   4        NO.  16 INVERSE  15    ORDER   4
    0.000   1.000   0.000     0.000         0.000  -1.000   0.000     0.000
   -1.000   0.000   0.000     0.000         1.000   0.000   0.000     0.000
    0.000   0.000   1.000     0.000         0.000   0.000   1.000     0.000
             OPERATION C(   4)                       OPERATION C(   4)
 DETERMINANT 1.; ROTATION(DEG)  90.      DETERMINANT 1.; ROTATION(DEG)  90.
 TRANSLA (  0.000    0.000    0.000)     TRANSLA (  0.000    0.000    0.000)
 uvw/hkl (  0.000    0.000    2.000)     uvw/hkl (  0.000    0.000    2.000)
 LOCATED ( -0.000    0.000    0.000)     LOCATED (  0.000   -0.000    0.000)

   NO.  17 INVERSE  17    ORDER   2        NO.  18 INVERSE  18    ORDER   2
   -1.000   0.000   0.000     0.000         0.000   0.000  -1.000     0.000
    0.000   0.000  -1.000     0.000         0.000  -1.000   0.000     0.000
    0.000  -1.000   0.000     0.000        -1.000   0.000   0.000     0.000
             OPERATION C(   2)                       OPERATION C(   2)
 DETERMINANT 1.; ROTATION(DEG) 180.      DETERMINANT 1.; ROTATION(DEG) 180.
 TRANSLA (  0.000    0.000    0.000)     TRANSLA (  0.000    0.000    0.000)
 uvw/hkl (  0.000   -2.000    2.000)     uvw/hkl ( -2.000    0.000    2.000)
 LOCATED ( -0.000   -0.000    0.000)     LOCATED ( -0.000   -0.000    0.000)

   NO.  19 INVERSE  21    ORDER   4        NO.  20 INVERSE  22    ORDER   4
    1.000   0.000   0.000     0.000         0.000   0.000  -1.000     0.000
    0.000   0.000   1.000     0.000         0.000   1.000   0.000     0.000
    0.000  -1.000   0.000     0.000         1.000   0.000   0.000     0.000
             OPERATION C(   4)                       OPERATION C(   4)
 DETERMINANT 1.; ROTATION(DEG)  90.      DETERMINANT 1.; ROTATION(DEG)  90.
 TRANSLA (  0.000    0.000    0.000)     TRANSLA (  0.000    0.000    0.000)
 uvw/hkl (  2.000    0.000    0.000)     uvw/hkl (  0.000   -2.000   -0.000)
 LOCATED (  0.000   -0.000    0.000)     LOCATED (  0.000    0.000   -0.000)

   NO.  21 INVERSE  19    ORDER   4        NO.  22 INVERSE  20    ORDER   4
    1.000   0.000   0.000     0.000         0.000   0.000   1.000     0.000
    0.000   0.000  -1.000     0.000         0.000   1.000   0.000     0.000
    0.000   1.000   0.000     0.000        -1.000   0.000   0.000     0.000
             OPERATION C(   4)                       OPERATION C(   4)
 DETERMINANT 1.; ROTATION(DEG)  90.      DETERMINANT 1.; ROTATION(DEG)  90.
 TRANSLA (  0.000    0.000    0.000)     TRANSLA (  0.000    0.000    0.000)
 uvw/hkl (  2.000    0.000    0.000)     uvw/hkl ( -0.000   -2.000    0.000)
 LOCATED (  0.000    0.000   -0.000)     LOCATED ( -0.000    0.000    0.000)

   NO.  23 INVERSE  23    ORDER   2        NO.  24 INVERSE  24    ORDER   2
   -1.000   0.000   0.000     0.000         0.000   0.000   1.000     0.000
    0.000   0.000   1.000     0.000         0.000  -1.000   0.000     0.000
    0.000   1.000   0.000     0.000         1.000   0.000   0.000     0.000
             OPERATION C(   2)                       OPERATION C(   2)
 DETERMINANT 1.; ROTATION(DEG) 180.      DETERMINANT 1.; ROTATION(DEG) 180.
 TRANSLA (  0.000    0.000    0.000)     TRANSLA (  0.000    0.000    0.000)
 uvw/hkl (  0.000    2.000    2.000)     uvw/hkl (  2.000    0.000    2.000)
 LOCATED ( -0.000   -0.000    0.000)     LOCATED ( -0.000   -0.000    0.000)

   NO.  25 INVERSE  25    ORDER   2        NO.  26 INVERSE  26    ORDER   2
   -1.000   0.000   0.000     0.000         1.000   0.000   0.000     0.000
    0.000  -1.000   0.000     0.000         0.000   1.000   0.000     0.000
    0.000   0.000  -1.000     0.000         0.000   0.000  -1.000     0.000
             OPERATION I(   2)                       OPERATION M(   2)
 DETERMINANT-1.; ROTATION(DEG) 180.      DETERMINANT-1.; ROTATION(DEG)   0.
 TRANSLA (  0.000    0.000    0.000)     TRANSLA (  0.000    0.000    0.000)
 uvw/hkl (  0.000    0.000    0.000)     uvw/hkl (  0.000    0.000   -2.000)
 LOCATED (  0.000    0.000    0.000)     LOCATED (  0.000    0.000   -0.000)

   NO.  27 INVERSE  27    ORDER   2        NO.  28 INVERSE  28    ORDER   2
   -1.000   0.000   0.000     0.000         1.000   0.000   0.000     0.000
    0.000   1.000   0.000     0.000         0.000  -1.000   0.000     0.000
    0.000   0.000   1.000     0.000         0.000   0.000   1.000     0.000
             OPERATION M(   2)                       OPERATION M(   2)
 DETERMINANT-1.; ROTATION(DEG)   0.      DETERMINANT-1.; ROTATION(DEG)   0.
 TRANSLA (  0.000    0.000    0.000)     TRANSLA (  0.000    0.000    0.000)
 uvw/hkl (  2.000   -0.000   -0.000)     uvw/hkl (  0.000   -2.000    0.000)
 LOCATED ( -0.000    0.000    0.000)     LOCATED (  0.000   -0.000    0.000)

   NO.  29 INVERSE  30    ORDER   6        NO.  30 INVERSE  29    ORDER   6
    0.000   0.000  -1.000     0.000         0.000  -1.000   0.000     0.000
   -1.000   0.000   0.000     0.000         0.000   0.000  -1.000     0.000
    0.000  -1.000   0.000     0.000        -1.000   0.000   0.000     0.000
             OPERATION S(   6)                       OPERATION S(   6)
 DETERMINANT-1.; ROTATION(DEG)  60.      DETERMINANT-1.; ROTATION(DEG)  60.
 TRANSLA (  0.000    0.000    0.000)     TRANSLA (  0.000    0.000    0.000)
 uvw/hkl ( -1.000    1.000    1.000)     uvw/hkl (  1.000   -1.000    1.000)
 LOCATED (  0.000    0.000    0.000)     LOCATED (  0.000   -0.000    0.000)

   NO.  31 INVERSE  32    ORDER   6        NO.  32 INVERSE  31    ORDER   6
    0.000   0.000   1.000     0.000         0.000   1.000   0.000     0.000
    1.000   0.000   0.000     0.000         0.000   0.000  -1.000     0.000
    0.000  -1.000   0.000     0.000         1.000   0.000   0.000     0.000
             OPERATION S(   6)                       OPERATION S(   6)
 DETERMINANT-1.; ROTATION(DEG)  60.      DETERMINANT-1.; ROTATION(DEG)  60.
 TRANSLA (  0.000    0.000    0.000)     TRANSLA (  0.000    0.000    0.000)
 uvw/hkl (  1.000    1.000    1.000)     uvw/hkl ( -1.000   -1.000    1.000)
 LOCATED (  0.000    0.000    0.000)     LOCATED (  0.000    0.000    0.000)

   NO.  33 INVERSE  34    ORDER   6        NO.  34 INVERSE  33    ORDER   6
    0.000   0.000  -1.000     0.000         0.000   1.000   0.000     0.000
    1.000   0.000   0.000     0.000         0.000   0.000   1.000     0.000
    0.000   1.000   0.000     0.000        -1.000   0.000   0.000     0.000
             OPERATION S(   6)                       OPERATION S(   6)
 DETERMINANT-1.; ROTATION(DEG)  60.      DETERMINANT-1.; ROTATION(DEG)  60.
 TRANSLA (  0.000    0.000    0.000)     TRANSLA (  0.000    0.000    0.000)
 uvw/hkl ( -1.000   -1.000    1.000)     uvw/hkl (  1.000    1.000    1.000)
 LOCATED (  0.000    0.000    0.000)     LOCATED (  0.000    0.000    0.000)

   NO.  35 INVERSE  36    ORDER   6        NO.  36 INVERSE  35    ORDER   6
    0.000   0.000   1.000     0.000         0.000  -1.000   0.000     0.000
   -1.000   0.000   0.000     0.000         0.000   0.000   1.000     0.000
    0.000   1.000   0.000     0.000         1.000   0.000   0.000     0.000
             OPERATION S(   6)                       OPERATION S(   6)
 DETERMINANT-1.; ROTATION(DEG)  60.      DETERMINANT-1.; ROTATION(DEG)  60.
 TRANSLA (  0.000    0.000    0.000)     TRANSLA (  0.000    0.000    0.000)
 uvw/hkl (  1.000   -1.000    1.000)     uvw/hkl ( -1.000    1.000    1.000)
 LOCATED (  0.000    0.000    0.000)     LOCATED (  0.000   -0.000    0.000)

   NO.  37 INVERSE  37    ORDER   2        NO.  38 INVERSE  38    ORDER   2
    0.000   1.000   0.000     0.000         0.000  -1.000   0.000     0.000
    1.000   0.000   0.000     0.000        -1.000   0.000   0.000     0.000
    0.000   0.000   1.000     0.000         0.000   0.000   1.000     0.000
             OPERATION M(   2)                       OPERATION M(   2)
 DETERMINANT-1.; ROTATION(DEG)   0.      DETERMINANT-1.; ROTATION(DEG)   0.
 TRANSLA (  0.000    0.000    0.000)     TRANSLA (  0.000    0.000    0.000)
 uvw/hkl (  1.000   -1.000   -0.000)     uvw/hkl (  1.000    1.000   -0.000)
 LOCATED ( -0.000    0.000    0.000)     LOCATED ( -0.000    0.000    0.000)

   NO.  39 INVERSE  40    ORDER   4        NO.  40 INVERSE  39    ORDER   4
    0.000  -1.000   0.000     0.000         0.000   1.000   0.000     0.000
    1.000   0.000   0.000     0.000        -1.000   0.000   0.000     0.000
    0.000   0.000  -1.000     0.000         0.000   0.000  -1.000     0.000
             OPERATION S(   4)                       OPERATION S(   4)
 DETERMINANT-1.; ROTATION(DEG)  90.      DETERMINANT-1.; ROTATION(DEG)  90.
 TRANSLA (  0.000    0.000    0.000)     TRANSLA (  0.000    0.000    0.000)
 uvw/hkl (  0.000    0.000    2.000)     uvw/hkl (  0.000    0.000    2.000)
 LOCATED (  0.000    0.000    0.000)     LOCATED (  0.000    0.000    0.000)

   NO.  41 INVERSE  41    ORDER   2        NO.  42 INVERSE  42    ORDER   2
    1.000   0.000   0.000     0.000         0.000   0.000   1.000     0.000
    0.000   0.000   1.000     0.000         0.000   1.000   0.000     0.000
    0.000   1.000   0.000     0.000         1.000   0.000   0.000     0.000
             OPERATION M(   2)                       OPERATION M(   2)
 DETERMINANT-1.; ROTATION(DEG)   0.      DETERMINANT-1.; ROTATION(DEG)   0.
 TRANSLA (  0.000    0.000    0.000)     TRANSLA (  0.000    0.000    0.000)
 uvw/hkl (  0.000   -1.000    1.000)     uvw/hkl (  1.000   -0.000   -1.000)
 LOCATED (  0.000   -0.000    0.000)     LOCATED ( -0.000    0.000    0.000)

   NO.  43 INVERSE  45    ORDER   4        NO.  44 INVERSE  46    ORDER   4
   -1.000   0.000   0.000     0.000         0.000   0.000   1.000     0.000
    0.000   0.000  -1.000     0.000         0.000  -1.000   0.000     0.000
    0.000   1.000   0.000     0.000        -1.000   0.000   0.000     0.000
             OPERATION S(   4)                       OPERATION S(   4)
 DETERMINANT-1.; ROTATION(DEG)  90.      DETERMINANT-1.; ROTATION(DEG)  90.
 TRANSLA (  0.000    0.000    0.000)     TRANSLA (  0.000    0.000    0.000)
 uvw/hkl (  0.000   -2.000    2.000)     uvw/hkl (  2.000    0.000    2.000)
 LOCATED ( -0.000    0.000    0.000)     LOCATED (  0.000    0.000    0.000)

   NO.  45 INVERSE  43    ORDER   4        NO.  46 INVERSE  44    ORDER   4
   -1.000   0.000   0.000     0.000         0.000   0.000  -1.000     0.000
    0.000   0.000   1.000     0.000         0.000  -1.000   0.000     0.000
    0.000  -1.000   0.000     0.000         1.000   0.000   0.000     0.000
             OPERATION S(   4)                       OPERATION S(   4)
 DETERMINANT-1.; ROTATION(DEG)  90.      DETERMINANT-1.; ROTATION(DEG)  90.
 TRANSLA (  0.000    0.000    0.000)     TRANSLA (  0.000    0.000    0.000)
 uvw/hkl (  0.000    2.000    2.000)     uvw/hkl ( -2.000    0.000    2.000)
 LOCATED (  0.000    0.000    0.000)     LOCATED (  0.000   -0.000    0.000)

   NO.  47 INVERSE  47    ORDER   2        NO.  48 INVERSE  48    ORDER   2
    1.000   0.000   0.000     0.000         0.000   0.000  -1.000     0.000
    0.000   0.000  -1.000     0.000         0.000   1.000   0.000     0.000
    0.000  -1.000   0.000     0.000        -1.000   0.000   0.000     0.000
             OPERATION M(   2)                       OPERATION M(   2)
 DETERMINANT-1.; ROTATION(DEG)   0.      DETERMINANT-1.; ROTATION(DEG)   0.
 TRANSLA (  0.000    0.000    0.000)     TRANSLA (  0.000    0.000    0.000)
 uvw/hkl (  0.000   -1.000   -1.000)     uvw/hkl (  1.000   -0.000    1.000)
 LOCATED (  0.000   -0.000    0.000)     LOCATED ( -0.000    0.000    0.000)

   NO.  49 INVERSE  97    ORDER   1        NO.  50 INVERSE  98    ORDER   2
    1.000   0.000   0.000     0.000        -1.000   0.000   0.000     0.000
    0.000   1.000   0.000     0.000         0.000  -1.000   0.000     0.000
    0.000   0.000   1.000     4.210         0.000   0.000   1.000     4.210
             OPERATION E(   1)                       OPERATION C(   2)
 DETERMINANT 1.; ROTATION(DEG)   0.      DETERMINANT 1.; ROTATION(DEG) 180.
 TRANSLA (  0.000    0.000    4.210)     TRANSLA (  0.000    0.000    4.210)
 uvw/hkl (  0.000    0.000    0.000)     uvw/hkl (  0.000    0.000    4.000)
 LOCATED (  0.000    0.000    0.000)     LOCATED ( -0.000   -0.000    0.000)

   NO.  51 INVERSE  51    ORDER   2        NO.  52 INVERSE  52    ORDER   2
    1.000   0.000   0.000     0.000        -1.000   0.000   0.000     0.000
    0.000  -1.000   0.000     0.000         0.000   1.000   0.000     0.000
    0.000   0.000  -1.000     4.210         0.000   0.000  -1.000     4.210
             OPERATION C(   2)                       OPERATION C(   2)
 DETERMINANT 1.; ROTATION(DEG) 180.      DETERMINANT 1.; ROTATION(DEG) 180.
 TRANSLA (  0.000    0.000    0.000)     TRANSLA (  0.000    0.000    0.000)
 uvw/hkl (  4.000    0.000    0.000)     uvw/hkl ( -0.000   -4.000   -0.000)
 LOCATED (  0.000    0.000    2.105)     LOCATED (  0.000    0.000    2.105)

   NO.  53 INVERSE 294    ORDER   3        NO.  54 INVERSE 869    ORDER   3
    0.000   0.000   1.000     0.000         0.000   1.000   0.000     0.000
    1.000   0.000   0.000     0.000         0.000   0.000   1.000     0.000
    0.000   1.000   0.000     4.210         1.000   0.000   0.000     4.210
             OPERATION C(   3)                       OPERATION C(   3)
 DETERMINANT 1.; ROTATION(DEG) 120.      DETERMINANT 1.; ROTATION(DEG) 120.
 TRANSLA (  1.403    1.403    1.403)     TRANSLA (  1.403    1.403    1.403)
 uvw/hkl (  1.000    1.000    1.000)     uvw/hkl (  1.000    1.000    1.000)
 LOCATED ( -1.403   -2.807    0.000)     LOCATED ( -2.807   -1.403    0.000)

   NO.  55 INVERSE 296    ORDER   3        NO.  56 INVERSE 439    ORDER   3
    0.000   0.000  -1.000     0.000         0.000  -1.000   0.000     0.000
   -1.000   0.000   0.000     0.000         0.000   0.000   1.000     0.000
    0.000   1.000   0.000     4.210        -1.000   0.000   0.000     4.210
             OPERATION C(   3)                       OPERATION C(   3)
 DETERMINANT 1.; ROTATION(DEG) 120.      DETERMINANT 1.; ROTATION(DEG) 120.
 TRANSLA ( -1.403    1.403    1.403)     TRANSLA ( -1.403    1.403    1.403)
 uvw/hkl ( -1.000    1.000    1.000)     uvw/hkl ( -1.000    1.000    1.000)
 LOCATED (  1.403   -2.807    0.000)     LOCATED (  2.807   -1.403    0.000)

   NO.  57 INVERSE 154    ORDER   3        NO.  58 INVERSE 873    ORDER   3
    0.000   0.000   1.000     0.000         0.000  -1.000   0.000     0.000
   -1.000   0.000   0.000     0.000         0.000   0.000  -1.000     0.000
    0.000  -1.000   0.000     4.210         1.000   0.000   0.000     4.210
             OPERATION C(   3)                       OPERATION C(   3)
 DETERMINANT 1.; ROTATION(DEG) 120.      DETERMINANT 1.; ROTATION(DEG) 120.
 TRANSLA (  1.403   -1.403    1.403)     TRANSLA (  1.403   -1.403    1.403)
 uvw/hkl (  1.000   -1.000    1.000)     uvw/hkl (  1.000   -1.000    1.000)
 LOCATED ( -1.403    2.807    0.000)     LOCATED ( -2.807    1.403    0.000)

   NO.  59 INVERSE 156    ORDER   3        NO.  60 INVERSE 443    ORDER   3
    0.000   0.000  -1.000     0.000         0.000   1.000   0.000     0.000
    1.000   0.000   0.000     0.000         0.000   0.000  -1.000     0.000
    0.000  -1.000   0.000     4.210        -1.000   0.000   0.000     4.210
             OPERATION C(   3)                       OPERATION C(   3)
 DETERMINANT 1.; ROTATION(DEG) 120.      DETERMINANT 1.; ROTATION(DEG) 120.
 TRANSLA ( -1.403   -1.403    1.403)     TRANSLA ( -1.403   -1.403    1.403)
 uvw/hkl ( -1.000   -1.000    1.000)     uvw/hkl ( -1.000   -1.000    1.000)
 LOCATED (  1.403    2.807    0.000)     LOCATED (  2.807    1.403    0.000)

   NO.  61 INVERSE  61    ORDER   2        NO.  62 INVERSE  62    ORDER   2
    0.000  -1.000   0.000     0.000         0.000   1.000   0.000     0.000
   -1.000   0.000   0.000     0.000         1.000   0.000   0.000     0.000
    0.000   0.000  -1.000     4.210         0.000   0.000  -1.000     4.210
             OPERATION C(   2)                       OPERATION C(   2)
 DETERMINANT 1.; ROTATION(DEG) 180.      DETERMINANT 1.; ROTATION(DEG) 180.
 TRANSLA (  0.000    0.000    0.000)     TRANSLA (  0.000    0.000    0.000)
 uvw/hkl (  2.000   -2.000    0.000)     uvw/hkl ( -2.000   -2.000   -0.000)
 LOCATED (  0.000    0.000    2.105)     LOCATED (  0.000    0.000    2.105)

   NO.  63 INVERSE 112    ORDER   4        NO.  64 INVERSE 111    ORDER   4
    0.000   1.000   0.000     0.000         0.000  -1.000   0.000     0.000
   -1.000   0.000   0.000     0.000         1.000   0.000   0.000     0.000
    0.000   0.000   1.000     4.210         0.000   0.000   1.000     4.210
             OPERATION C(   4)                       OPERATION C(   4)
 DETERMINANT 1.; ROTATION(DEG)  90.      DETERMINANT 1.; ROTATION(DEG)  90.
 TRANSLA (  0.000    0.000    4.210)     TRANSLA (  0.000    0.000    4.210)
 uvw/hkl (  0.000    0.000    2.000)     uvw/hkl (  0.000    0.000    2.000)
 LOCATED ( -0.000    0.000    0.000)     LOCATED (  0.000   -0.000    0.000)

   NO.  65 INVERSE 161    ORDER   2        NO.  66 INVERSE 450    ORDER   2
   -1.000   0.000   0.000     0.000         0.000   0.000  -1.000     0.000
    0.000   0.000  -1.000     0.000         0.000  -1.000   0.000     0.000
    0.000  -1.000   0.000     4.210        -1.000   0.000   0.000     4.210
             OPERATION C(   2)                       OPERATION C(   2)
 DETERMINANT 1.; ROTATION(DEG) 180.      DETERMINANT 1.; ROTATION(DEG) 180.
 TRANSLA (  0.000   -2.105    2.105)     TRANSLA ( -2.105    0.000    2.105)
 uvw/hkl (  0.000   -2.000    2.000)     uvw/hkl ( -2.000    0.000    2.000)
 LOCATED (  0.000    2.105    0.000)     LOCATED (  2.105    0.000    0.000)

   NO.  67 INVERSE 165    ORDER   4        NO.  68 INVERSE 886    ORDER   4
    1.000   0.000   0.000     0.000         0.000   0.000  -1.000     0.000
    0.000   0.000   1.000     0.000         0.000   1.000   0.000     0.000
    0.000  -1.000   0.000     4.210         1.000   0.000   0.000     4.210
             OPERATION C(   4)                       OPERATION C(   4)
 DETERMINANT 1.; ROTATION(DEG)  90.      DETERMINANT 1.; ROTATION(DEG)  90.
 TRANSLA (  0.000    0.000    0.000)     TRANSLA (  0.000    0.000    0.000)
 uvw/hkl (  2.000    0.000    0.000)     uvw/hkl (  0.000   -2.000   -0.000)
 LOCATED (  0.000    2.105    2.105)     LOCATED ( -2.105    0.000    2.105)

   NO.  69 INVERSE 307    ORDER   4        NO.  70 INVERSE 452    ORDER   4
    1.000   0.000   0.000     0.000         0.000   0.000   1.000     0.000
    0.000   0.000  -1.000     0.000         0.000   1.000   0.000     0.000
    0.000   1.000   0.000     4.210        -1.000   0.000   0.000     4.210
             OPERATION C(   4)                       OPERATION C(   4)
 DETERMINANT 1.; ROTATION(DEG)  90.      DETERMINANT 1.; ROTATION(DEG)  90.
 TRANSLA (  0.000    0.000    0.000)     TRANSLA (  0.000    0.000    0.000)
 uvw/hkl (  2.000    0.000    0.000)     uvw/hkl ( -0.000   -2.000    0.000)
 LOCATED (  0.000   -2.105    2.105)     LOCATED (  2.105    0.000    2.105)

   NO.  71 INVERSE 311    ORDER   2        NO.  72 INVERSE 888    ORDER   2
   -1.000   0.000   0.000     0.000         0.000   0.000   1.000     0.000
    0.000   0.000   1.000     0.000         0.000  -1.000   0.000     0.000
    0.000   1.000   0.000     4.210         1.000   0.000   0.000     4.210
             OPERATION C(   2)                       OPERATION C(   2)
 DETERMINANT 1.; ROTATION(DEG) 180.      DETERMINANT 1.; ROTATION(DEG) 180.
 TRANSLA (  0.000    2.105    2.105)     TRANSLA (  2.105    0.000    2.105)
 uvw/hkl (  0.000    2.000    2.000)     uvw/hkl (  2.000    0.000    2.000)
 LOCATED ( -0.000   -2.105    0.000)     LOCATED ( -2.105   -0.000    0.000)

   NO.  73 INVERSE  73    ORDER   2        NO.  74 INVERSE  74    ORDER   2
   -1.000   0.000   0.000     0.000         1.000   0.000   0.000     0.000
    0.000  -1.000   0.000     0.000         0.000   1.000   0.000     0.000
    0.000   0.000  -1.000     4.210         0.000   0.000  -1.000     4.210
             OPERATION I(   2)                       OPERATION M(   2)
 DETERMINANT-1.; ROTATION(DEG) 180.      DETERMINANT-1.; ROTATION(DEG)   0.
 TRANSLA (  0.000    0.000    0.000)     TRANSLA (  0.000    0.000    0.000)
 uvw/hkl (  0.000    0.000    0.000)     uvw/hkl (  0.000    0.000   -2.000)
 LOCATED (  0.000    0.000    2.105)     LOCATED (  0.000    0.000    2.105)

   NO.  75 INVERSE 123    ORDER   2        NO.  76 INVERSE 124    ORDER   2
   -1.000   0.000   0.000     0.000         1.000   0.000   0.000     0.000
    0.000   1.000   0.000     0.000         0.000  -1.000   0.000     0.000
    0.000   0.000   1.000     4.210         0.000   0.000   1.000     4.210
             OPERATION M(   2)                       OPERATION M(   2)
 DETERMINANT-1.; ROTATION(DEG)   0.      DETERMINANT-1.; ROTATION(DEG)   0.
 TRANSLA (  0.000    0.000    4.210)     TRANSLA (  0.000    0.000    4.210)
 uvw/hkl (  2.000   -0.000   -0.000)     uvw/hkl (  0.000   -2.000    0.000)
 LOCATED ( -0.000    0.000    0.000)     LOCATED (  0.000   -0.000    0.000)

   NO.  77 INVERSE 174    ORDER   6        NO.  78 INVERSE 461    ORDER   6
    0.000   0.000  -1.000     0.000         0.000  -1.000   0.000     0.000
   -1.000   0.000   0.000     0.000         0.000   0.000  -1.000     0.000
    0.000  -1.000   0.000     4.210        -1.000   0.000   0.000     4.210
             OPERATION S(   6)                       OPERATION S(   6)
 DETERMINANT-1.; ROTATION(DEG)  60.      DETERMINANT-1.; ROTATION(DEG)  60.
 TRANSLA (  0.000    0.000    0.000)     TRANSLA (  0.000    0.000    0.000)
 uvw/hkl ( -1.000    1.000    1.000)     uvw/hkl (  1.000   -1.000    1.000)
 LOCATED (  0.000    0.000    0.000)     LOCATED (  0.000   -0.000    0.000)

   NO.  79 INVERSE 176    ORDER   6        NO.  80 INVERSE 895    ORDER   6
    0.000   0.000   1.000     0.000         0.000   1.000   0.000     0.000
    1.000   0.000   0.000     0.000         0.000   0.000  -1.000     0.000
    0.000  -1.000   0.000     4.210         1.000   0.000   0.000     4.210
             OPERATION S(   6)                       OPERATION S(   6)
 DETERMINANT-1.; ROTATION(DEG)  60.      DETERMINANT-1.; ROTATION(DEG)  60.
 TRANSLA (  0.000    0.000    0.000)     TRANSLA (  0.000    0.000    0.000)
 uvw/hkl (  1.000    1.000    1.000)     uvw/hkl ( -1.000   -1.000    1.000)
 LOCATED (  0.000    0.000    0.000)     LOCATED (  0.000    0.000    0.000)

   NO.  81 INVERSE 322    ORDER   6        NO.  82 INVERSE 465    ORDER   6
    0.000   0.000  -1.000     0.000         0.000   1.000   0.000     0.000
    1.000   0.000   0.000     0.000         0.000   0.000   1.000     0.000
    0.000   1.000   0.000     4.210        -1.000   0.000   0.000     4.210
             OPERATION S(   6)                       OPERATION S(   6)
 DETERMINANT-1.; ROTATION(DEG)  60.      DETERMINANT-1.; ROTATION(DEG)  60.
 TRANSLA (  0.000    0.000    0.000)     TRANSLA (  0.000    0.000    0.000)
 uvw/hkl ( -1.000   -1.000    1.000)     uvw/hkl (  1.000    1.000    1.000)
 LOCATED (  0.000    0.000    0.000)     LOCATED (  0.000    0.000    0.000)

   NO.  83 INVERSE 324    ORDER   6        NO.  84 INVERSE 899    ORDER   6
    0.000   0.000   1.000     0.000         0.000  -1.000   0.000     0.000
   -1.000   0.000   0.000     0.000         0.000   0.000   1.000     0.000
    0.000   1.000   0.000     4.210         1.000   0.000   0.000     4.210
             OPERATION S(   6)                       OPERATION S(   6)
 DETERMINANT-1.; ROTATION(DEG)  60.      DETERMINANT-1.; ROTATION(DEG)  60.
 TRANSLA (  0.000    0.000    0.000)     TRANSLA (  0.000    0.000    0.000)
 uvw/hkl (  1.000   -1.000    1.000)     uvw/hkl ( -1.000    1.000    1.000)
 LOCATED (  0.000    0.000    0.000)     LOCATED (  0.000   -0.000    0.000)

   NO.  85 INVERSE 133    ORDER   2        NO.  86 INVERSE 134    ORDER   2
    0.000   1.000   0.000     0.000         0.000  -1.000   0.000     0.000
    1.000   0.000   0.000     0.000        -1.000   0.000   0.000     0.000
    0.000   0.000   1.000     4.210         0.000   0.000   1.000     4.210
             OPERATION M(   2)                       OPERATION M(   2)
 DETERMINANT-1.; ROTATION(DEG)   0.      DETERMINANT-1.; ROTATION(DEG)   0.
 TRANSLA (  0.000    0.000    4.210)     TRANSLA (  0.000    0.000    4.210)
 uvw/hkl (  1.000   -1.000   -0.000)     uvw/hkl (  1.000    1.000   -0.000)
 LOCATED ( -0.000    0.000    0.000)     LOCATED ( -0.000    0.000    0.000)

   NO.  87 INVERSE  88    ORDER   4        NO.  88 INVERSE  87    ORDER   4
    0.000  -1.000   0.000     0.000         0.000   1.000   0.000     0.000
    1.000   0.000   0.000     0.000        -1.000   0.000   0.000     0.000
    0.000   0.000  -1.000     4.210         0.000   0.000  -1.000     4.210
             OPERATION S(   4)                       OPERATION S(   4)
 DETERMINANT-1.; ROTATION(DEG)  90.      DETERMINANT-1.; ROTATION(DEG)  90.
 TRANSLA (  0.000    0.000    0.000)     TRANSLA (  0.000    0.000    0.000)
 uvw/hkl (  0.000    0.000    2.000)     uvw/hkl (  0.000    0.000    2.000)
 LOCATED (  0.000    0.000    2.105)     LOCATED (  0.000    0.000    2.105)

   NO.  89 INVERSE 329    ORDER   2        NO.  90 INVERSE 906    ORDER   2
    1.000   0.000   0.000     0.000         0.000   0.000   1.000     0.000
    0.000   0.000   1.000     0.000         0.000   1.000   0.000     0.000
    0.000   1.000   0.000     4.210         1.000   0.000   0.000     4.210
             OPERATION M(   2)                       OPERATION M(   2)
 DETERMINANT-1.; ROTATION(DEG)   0.      DETERMINANT-1.; ROTATION(DEG)   0.
 TRANSLA (  0.000    2.105    2.105)     TRANSLA (  2.105    0.000    2.105)
 uvw/hkl (  0.000   -1.000    1.000)     uvw/hkl (  1.000   -0.000   -1.000)
 LOCATED (  0.000   -2.105    0.000)     LOCATED ( -2.105    0.000    0.000)

   NO.  91 INVERSE 333    ORDER   4        NO.  92 INVERSE 478    ORDER   4
   -1.000   0.000   0.000     0.000         0.000   0.000   1.000     0.000
    0.000   0.000  -1.000     0.000         0.000  -1.000   0.000     0.000
    0.000   1.000   0.000     4.210        -1.000   0.000   0.000     4.210
             OPERATION S(   4)                       OPERATION S(   4)
 DETERMINANT-1.; ROTATION(DEG)  90.      DETERMINANT-1.; ROTATION(DEG)  90.
 TRANSLA (  0.000    0.000    0.000)     TRANSLA (  0.000    0.000    0.000)
 uvw/hkl (  0.000   -2.000    2.000)     uvw/hkl (  2.000    0.000    2.000)
 LOCATED ( -0.000    0.000    0.000)     LOCATED (  0.000    0.000    0.000)

   NO.  93 INVERSE 187    ORDER   4        NO.  94 INVERSE 908    ORDER   4
   -1.000   0.000   0.000     0.000         0.000   0.000  -1.000     0.000
    0.000   0.000   1.000     0.000         0.000  -1.000   0.000     0.000
    0.000  -1.000   0.000     4.210         1.000   0.000   0.000     4.210
             OPERATION S(   4)                       OPERATION S(   4)
 DETERMINANT-1.; ROTATION(DEG)  90.      DETERMINANT-1.; ROTATION(DEG)  90.
 TRANSLA (  0.000    0.000    0.000)     TRANSLA (  0.000    0.000    0.000)
 uvw/hkl (  0.000    2.000    2.000)     uvw/hkl ( -2.000    0.000    2.000)
 LOCATED (  0.000    0.000    0.000)     LOCATED (  0.000   -0.000    0.000)

   NO.  95 INVERSE 191    ORDER   2        NO.  96 INVERSE 480    ORDER   2
    1.000   0.000   0.000     0.000         0.000   0.000  -1.000     0.000
    0.000   0.000  -1.000     0.000         0.000   1.000   0.000     0.000
    0.000  -1.000   0.000     4.210        -1.000   0.000   0.000     4.210
             OPERATION M(   2)                       OPERATION M(   2)
 DETERMINANT-1.; ROTATION(DEG)   0.      DETERMINANT-1.; ROTATION(DEG)   0.
 TRANSLA (  0.000   -2.105    2.105)     TRANSLA ( -2.105    0.000    2.105)
 uvw/hkl (  0.000   -1.000   -1.000)     uvw/hkl (  1.000   -0.000    1.000)
 LOCATED (  0.000    2.105    0.000)     LOCATED (  2.105    0.000    0.000)

   NO.  97 INVERSE  49    ORDER   1        NO.  98 INVERSE  50    ORDER   2
    1.000   0.000   0.000     0.000        -1.000   0.000   0.000     0.000
    0.000   1.000   0.000     0.000         0.000  -1.000   0.000     0.000
    0.000   0.000   1.000    -4.210         0.000   0.000   1.000    -4.210
             OPERATION E(   1)                       OPERATION C(   2)
 DETERMINANT 1.; ROTATION(DEG)   0.      DETERMINANT 1.; ROTATION(DEG) 180.
 TRANSLA (  0.000    0.000   -4.210)     TRANSLA (  0.000    0.000   -4.210)
 uvw/hkl (  0.000    0.000    0.000)     uvw/hkl (  0.000    0.000    4.000)
 LOCATED (  0.000    0.000    0.000)     LOCATED ( -0.000   -0.000    0.000)

   NO.  99 INVERSE  99    ORDER   2        NO. 100 INVERSE 100    ORDER   2
    1.000   0.000   0.000     0.000        -1.000   0.000   0.000     0.000
    0.000  -1.000   0.000     0.000         0.000   1.000   0.000     0.000
    0.000   0.000  -1.000    -4.210         0.000   0.000  -1.000    -4.210
             OPERATION C(   2)                       OPERATION C(   2)
 DETERMINANT 1.; ROTATION(DEG) 180.      DETERMINANT 1.; ROTATION(DEG) 180.
 TRANSLA (  0.000    0.000    0.000)     TRANSLA (  0.000    0.000    0.000)
 uvw/hkl (  4.000    0.000    0.000)     uvw/hkl ( -0.000   -4.000   -0.000)
 LOCATED (  0.000   -0.000   -2.105)     LOCATED ( -0.000    0.000   -2.105)

   NO. 101 INVERSE 150    ORDER   3        NO. 102 INVERSE 437    ORDER   3
    0.000   0.000   1.000     0.000         0.000   1.000   0.000     0.000
    1.000   0.000   0.000     0.000         0.000   0.000   1.000     0.000
    0.000   1.000   0.000    -4.210         1.000   0.000   0.000    -4.210
             OPERATION C(   3)                       OPERATION C(   3)
 DETERMINANT 1.; ROTATION(DEG) 120.      DETERMINANT 1.; ROTATION(DEG) 120.
 TRANSLA ( -1.403   -1.403   -1.403)     TRANSLA ( -1.403   -1.403   -1.403)
 uvw/hkl (  1.000    1.000    1.000)     uvw/hkl (  1.000    1.000    1.000)
 LOCATED (  1.403    2.807    0.000)     LOCATED (  2.807    1.403    0.000)

   NO. 103 INVERSE 152    ORDER   3        NO. 104 INVERSE 871    ORDER   3
    0.000   0.000  -1.000     0.000         0.000  -1.000   0.000     0.000
   -1.000   0.000   0.000     0.000         0.000   0.000   1.000     0.000
    0.000   1.000   0.000    -4.210        -1.000   0.000   0.000    -4.210
             OPERATION C(   3)                       OPERATION C(   3)
 DETERMINANT 1.; ROTATION(DEG) 120.      DETERMINANT 1.; ROTATION(DEG) 120.
 TRANSLA (  1.403   -1.403   -1.403)     TRANSLA (  1.403   -1.403   -1.403)
 uvw/hkl ( -1.000    1.000    1.000)     uvw/hkl ( -1.000    1.000    1.000)
 LOCATED ( -1.403    2.807    0.000)     LOCATED ( -2.807    1.403    0.000)

   NO. 105 INVERSE 298    ORDER   3        NO. 106 INVERSE 441    ORDER   3
    0.000   0.000   1.000     0.000         0.000  -1.000   0.000     0.000
   -1.000   0.000   0.000     0.000         0.000   0.000  -1.000     0.000
    0.000  -1.000   0.000    -4.210         1.000   0.000   0.000    -4.210
             OPERATION C(   3)                       OPERATION C(   3)
 DETERMINANT 1.; ROTATION(DEG) 120.      DETERMINANT 1.; ROTATION(DEG) 120.
 TRANSLA ( -1.403    1.403   -1.403)     TRANSLA ( -1.403    1.403   -1.403)
 uvw/hkl (  1.000   -1.000    1.000)     uvw/hkl (  1.000   -1.000    1.000)
 LOCATED (  1.403   -2.807    0.000)     LOCATED (  2.807   -1.403    0.000)

   NO. 107 INVERSE 300    ORDER   3        NO. 108 INVERSE 875    ORDER   3
    0.000   0.000  -1.000     0.000         0.000   1.000   0.000     0.000
    1.000   0.000   0.000     0.000         0.000   0.000  -1.000     0.000
    0.000  -1.000   0.000    -4.210        -1.000   0.000   0.000    -4.210
             OPERATION C(   3)                       OPERATION C(   3)
 DETERMINANT 1.; ROTATION(DEG) 120.      DETERMINANT 1.; ROTATION(DEG) 120.
 TRANSLA (  1.403    1.403   -1.403)     TRANSLA (  1.403    1.403   -1.403)
 uvw/hkl ( -1.000   -1.000    1.000)     uvw/hkl ( -1.000   -1.000    1.000)
 LOCATED ( -1.403   -2.807    0.000)     LOCATED ( -2.807   -1.403    0.000)

   NO. 109 INVERSE 109    ORDER   2        NO. 110 INVERSE 110    ORDER   2
    0.000  -1.000   0.000     0.000         0.000   1.000   0.000     0.000
   -1.000   0.000   0.000     0.000         1.000   0.000   0.000     0.000
    0.000   0.000  -1.000    -4.210         0.000   0.000  -1.000    -4.210
             OPERATION C(   2)                       OPERATION C(   2)
 DETERMINANT 1.; ROTATION(DEG) 180.      DETERMINANT 1.; ROTATION(DEG) 180.
 TRANSLA (  0.000    0.000    0.000)     TRANSLA (  0.000    0.000    0.000)
 uvw/hkl (  2.000   -2.000    0.000)     uvw/hkl ( -2.000   -2.000   -0.000)
 LOCATED ( -0.000    0.000   -2.105)     LOCATED ( -0.000    0.000   -2.105)

   NO. 111 INVERSE  64    ORDER   4        NO. 112 INVERSE  63    ORDER   4
    0.000   1.000   0.000     0.000         0.000  -1.000   0.000     0.000
   -1.000   0.000   0.000     0.000         1.000   0.000   0.000     0.000
    0.000   0.000   1.000    -4.210         0.000   0.000   1.000    -4.210
             OPERATION C(   4)                       OPERATION C(   4)
 DETERMINANT 1.; ROTATION(DEG)  90.      DETERMINANT 1.; ROTATION(DEG)  90.
 TRANSLA (  0.000    0.000   -4.210)     TRANSLA (  0.000    0.000   -4.210)
 uvw/hkl (  0.000    0.000    2.000)     uvw/hkl (  0.000    0.000    2.000)
 LOCATED ( -0.000    0.000    0.000)     LOCATED (  0.000   -0.000    0.000)

   NO. 113 INVERSE 305    ORDER   2        NO. 114 INVERSE 882    ORDER   2
   -1.000   0.000   0.000     0.000         0.000   0.000  -1.000     0.000
    0.000   0.000  -1.000     0.000         0.000  -1.000   0.000     0.000
    0.000  -1.000   0.000    -4.210        -1.000   0.000   0.000    -4.210
             OPERATION C(   2)                       OPERATION C(   2)
 DETERMINANT 1.; ROTATION(DEG) 180.      DETERMINANT 1.; ROTATION(DEG) 180.
 TRANSLA (  0.000    2.105   -2.105)     TRANSLA (  2.105    0.000   -2.105)
 uvw/hkl (  0.000   -2.000    2.000)     uvw/hkl ( -2.000    0.000    2.000)
 LOCATED ( -0.000   -2.105    0.000)     LOCATED ( -2.105   -0.000    0.000)

   NO. 115 INVERSE 309    ORDER   4        NO. 116 INVERSE 454    ORDER   4
    1.000   0.000   0.000     0.000         0.000   0.000  -1.000     0.000
    0.000   0.000   1.000     0.000         0.000   1.000   0.000     0.000
    0.000  -1.000   0.000    -4.210         1.000   0.000   0.000    -4.210
             OPERATION C(   4)                       OPERATION C(   4)
 DETERMINANT 1.; ROTATION(DEG)  90.      DETERMINANT 1.; ROTATION(DEG)  90.
 TRANSLA (  0.000    0.000    0.000)     TRANSLA (  0.000    0.000    0.000)
 uvw/hkl (  2.000    0.000    0.000)     uvw/hkl (  0.000   -2.000   -0.000)
 LOCATED (  0.000   -2.105   -2.105)     LOCATED (  2.105    0.000   -2.105)

   NO. 117 INVERSE 163    ORDER   4        NO. 118 INVERSE 884    ORDER   4
    1.000   0.000   0.000     0.000         0.000   0.000   1.000     0.000
    0.000   0.000  -1.000     0.000         0.000   1.000   0.000     0.000
    0.000   1.000   0.000    -4.210        -1.000   0.000   0.000    -4.210
             OPERATION C(   4)                       OPERATION C(   4)
 DETERMINANT 1.; ROTATION(DEG)  90.      DETERMINANT 1.; ROTATION(DEG)  90.
 TRANSLA (  0.000    0.000    0.000)     TRANSLA (  0.000    0.000    0.000)
 uvw/hkl (  2.000    0.000    0.000)     uvw/hkl ( -0.000   -2.000    0.000)
 LOCATED (  0.000    2.105   -2.105)     LOCATED ( -2.105    0.000   -2.105)

   NO. 119 INVERSE 167    ORDER   2        NO. 120 INVERSE 456    ORDER   2
   -1.000   0.000   0.000     0.000         0.000   0.000   1.000     0.000
    0.000   0.000   1.000     0.000         0.000  -1.000   0.000     0.000
    0.000   1.000   0.000    -4.210         1.000   0.000   0.000    -4.210
             OPERATION C(   2)                       OPERATION C(   2)
 DETERMINANT 1.; ROTATION(DEG) 180.      DETERMINANT 1.; ROTATION(DEG) 180.
 TRANSLA (  0.000   -2.105   -2.105)     TRANSLA ( -2.105    0.000   -2.105)
 uvw/hkl (  0.000    2.000    2.000)     uvw/hkl (  2.000    0.000    2.000)
 LOCATED (  0.000    2.105    0.000)     LOCATED (  2.105    0.000    0.000)

   NO. 121 INVERSE 121    ORDER   2        NO. 122 INVERSE 122    ORDER   2
   -1.000   0.000   0.000     0.000         1.000   0.000   0.000     0.000
    0.000  -1.000   0.000     0.000         0.000   1.000   0.000     0.000
    0.000   0.000  -1.000    -4.210         0.000   0.000  -1.000    -4.210
             OPERATION I(   2)                       OPERATION M(   2)
 DETERMINANT-1.; ROTATION(DEG) 180.      DETERMINANT-1.; ROTATION(DEG)   0.
 TRANSLA (  0.000    0.000    0.000)     TRANSLA (  0.000    0.000    0.000)
 uvw/hkl (  0.000    0.000    0.000)     uvw/hkl (  0.000    0.000   -2.000)
 LOCATED (  0.000    0.000   -2.105)     LOCATED (  0.000    0.000   -2.105)

   NO. 123 INVERSE  75    ORDER   2        NO. 124 INVERSE  76    ORDER   2
   -1.000   0.000   0.000     0.000         1.000   0.000   0.000     0.000
    0.000   1.000   0.000     0.000         0.000  -1.000   0.000     0.000
    0.000   0.000   1.000    -4.210         0.000   0.000   1.000    -4.210
             OPERATION M(   2)                       OPERATION M(   2)
 DETERMINANT-1.; ROTATION(DEG)   0.      DETERMINANT-1.; ROTATION(DEG)   0.
[...]
  MG   6   8  11  12  13  16  19  24  26
  --------------------------------------------------------------------------    
  XX   1   2   3   4   5   7   9  10  14  15  17  18  20  21  22  23  25  27
 <><><><><><><><><><><><><><><><><><><><><><><><><><><><><><><><><><><>
  CLASS :         3973     MULTIPLICITY : 324     N. OF SYMM. OP. :   4
  MG   6   8  11  12  13  16  19  23  27
  --------------------------------------------------------------------------    
  XX   1   2   3   4   5   7   9  10  14  15  17  18  20  21  22  24  25  26
 <><><><><><><><><><><><><><><><><><><><><><><><><><><><><><><><><><><>
  CLASS :         3974     MULTIPLICITY : 648     N. OF SYMM. OP. :   2
  MG   6   8  11  12  13  16  17  19  24
  --------------------------------------------------------------------------    
  XX   1   2   3   4   5   7   9  10  14  15  18  20  21  22  23  25  26  27
 <><><><><><><><><><><><><><><><><><><><><><><><><><><><><><><><><><><>
  CLASS :         3975     MULTIPLICITY : 648     N. OF SYMM. OP. :   2
  MG   6   8  10  17  19  21  23  24  25
  --------------------------------------------------------------------------    
  XX   1   2   3   4   5   7   9  11  12  13  14  15  16  18  20  22  26  27
 <><><><><><><><><><><><><><><><><><><><><><><><><><><><><><><><><><><>
  CLASS :         3976     MULTIPLICITY :1296     N. OF SYMM. OP. :   1
  MG   6   8  10  17  18  19  21  22  23
  --------------------------------------------------------------------------    
  XX   1   2   3   4   5   7   9  11  12  13  14  15  16  20  24  25  26  27
 <><><><><><><><><><><><><><><><><><><><><><><><><><><><><><><><><><><>
  CLASS :         3977     MULTIPLICITY :1296     N. OF SYMM. OP. :   1
  MG   6   8  10  17  18  19  20  22  24
  --------------------------------------------------------------------------    
  XX   1   2   3   4   5   7   9  11  12  13  14  15  16  21  23  25  26  27
 <><><><><><><><><><><><><><><><><><><><><><><><><><><><><><><><><><><>
  CLASS :         3978     MULTIPLICITY :1296     N. OF SYMM. OP. :   1
  MG   6   8  10  17  18  19  20  22  23
  --------------------------------------------------------------------------    
  XX   1   2   3   4   5   7   9  11  12  13  14  15  16  21  24  25  26  27
 <><><><><><><><><><><><><><><><><><><><><><><><><><><><><><><><><><><>
  CLASS :         3979     MULTIPLICITY : 648     N. OF SYMM. OP. :   2
  MG   6   8  10  16  18  19  21  23  26
  --------------------------------------------------------------------------    
  XX   1   2   3   4   5   7   9  11  12  13  14  15  17  20  22  24  25  27
 <><><><><><><><><><><><><><><><><><><><><><><><><><><><><><><><><><><>
  CLASS :         3980     MULTIPLICITY :1296     N. OF SYMM. OP. :   1
  MG   6   8  10  16  18  19  20  23  27
  --------------------------------------------------------------------------    
  XX   1   2   3   4   5   7   9  11  12  13  14  15  17  21  22  24  25  26
 <><><><><><><><><><><><><><><><><><><><><><><><><><><><><><><><><><><>
  CLASS :         3981     MULTIPLICITY :1296     N. OF SYMM. OP. :   1
  MG   6   8  10  16  18  19  20  23  26
  --------------------------------------------------------------------------    
  XX   1   2   3   4   5   7   9  11  12  13  14  15  17  21  22  24  25  27
 <><><><><><><><><><><><><><><><><><><><><><><><><><><><><><><><><><><>
  CLASS :         3982     MULTIPLICITY :1296     N. OF SYMM. OP. :   1
  MG   6   8  10  16  18  19  20  23  25
  --------------------------------------------------------------------------    
  XX   1   2   3   4   5   7   9  11  12  13  14  15  17  21  22  24  26  27
 <><><><><><><><><><><><><><><><><><><><><><><><><><><><><><><><><><><>
  CLASS :         3983     MULTIPLICITY :1296     N. OF SYMM. OP. :   1
  MG   6   8  10  16  18  19  20  23  24
  --------------------------------------------------------------------------    
  XX   1   2   3   4   5   7   9  11  12  13  14  15  17  21  22  25  26  27
 <><><><><><><><><><><><><><><><><><><><><><><><><><><><><><><><><><><>
  CLASS :         3984     MULTIPLICITY :1296     N. OF SYMM. OP. :   1
  MG   6   8  10  16  18  19  20  22  23
  --------------------------------------------------------------------------    
  XX   1   2   3   4   5   7   9  11  12  13  14  15  17  21  24  25  26  27
 <><><><><><><><><><><><><><><><><><><><><><><><><><><><><><><><><><><>
  CLASS :         3985     MULTIPLICITY :1296     N. OF SYMM. OP. :   1
  MG   6   8  10  16  18  19  20  21  23
  --------------------------------------------------------------------------    
  XX   1   2   3   4   5   7   9  11  12  13  14  15  17  22  24  25  26  27
 <><><><><><><><><><><><><><><><><><><><><><><><><><><><><><><><><><><>
  CLASS :         3986     MULTIPLICITY :1296     N. OF SYMM. OP. :   1
  MG   6   8  10  16  17  19  21  23  24
  --------------------------------------------------------------------------    
  XX   1   2   3   4   5   7   9  11  12  13  14  15  18  20  22  25  26  27
 <><><><><><><><><><><><><><><><><><><><><><><><><><><><><><><><><><><>
  CLASS :         3987     MULTIPLICITY :1296     N. OF SYMM. OP. :   1
  MG   6   8  10  16  17  19  21  22  23
  --------------------------------------------------------------------------    
  XX   1   2   3   4   5   7   9  11  12  13  14  15  18  20  24  25  26  27
 <><><><><><><><><><><><><><><><><><><><><><><><><><><><><><><><><><><>
  CLASS :         3988     MULTIPLICITY : 648     N. OF SYMM. OP. :   2
  MG   6   8  10  15  17  19  21  23  25
  --------------------------------------------------------------------------    
  XX   1   2   3   4   5   7   9  11  12  13  14  16  18  20  22  24  26  27
 <><><><><><><><><><><><><><><><><><><><><><><><><><><><><><><><><><><>
  CLASS :         3989     MULTIPLICITY : 648     N. OF SYMM. OP. :   2
  MG   6   8  10  15  17  18  19  20  22
  --------------------------------------------------------------------------    
  XX   1   2   3   4   5   7   9  11  12  13  14  16  21  23  24  25  26  27
 <><><><><><><><><><><><><><><><><><><><><><><><><><><><><><><><><><><>
  CLASS :         3990     MULTIPLICITY :1296     N. OF SYMM. OP. :   1
  MG   6   8  10  15  16  19  21  23  26
  --------------------------------------------------------------------------    
  XX   1   2   3   4   5   7   9  11  12  13  14  17  18  20  22  24  25  27
 <><><><><><><><><><><><><><><><><><><><><><><><><><><><><><><><><><><>
  CLASS :         3991     MULTIPLICITY :1296     N. OF SYMM. OP. :   1
  MG   6   8  10  15  16  19  20  23  27
  --------------------------------------------------------------------------    
  XX   1   2   3   4   5   7   9  11  12  13  14  17  18  21  22  24  25  26
 <><><><><><><><><><><><><><><><><><><><><><><><><><><><><><><><><><><>
  CLASS :         3992     MULTIPLICITY :1296     N. OF SYMM. OP. :   1
  MG   6   8  10  15  16  17  19  21  23
  --------------------------------------------------------------------------    
  XX   1   2   3   4   5   7   9  11  12  13  14  18  20  22  24  25  26  27
 <><><><><><><><><><><><><><><><><><><><><><><><><><><><><><><><><><><>
  CLASS :         3993     MULTIPLICITY : 648     N. OF SYMM. OP. :   2
  MG   6   8  10  14  18  19  21  25  27
  --------------------------------------------------------------------------    
  XX   1   2   3   4   5   7   9  11  12  13  15  16  17  20  22  23  24  26
 <><><><><><><><><><><><><><><><><><><><><><><><><><><><><><><><><><><>
  CLASS :         3994     MULTIPLICITY :1296     N. OF SYMM. OP. :   1
  MG   6   8  10  14  18  19  21  25  26
  --------------------------------------------------------------------------    
  XX   1   2   3   4   5   7   9  11  12  13  15  16  17  20  22  23  24  27
 <><><><><><><><><><><><><><><><><><><><><><><><><><><><><><><><><><><>
  CLASS :         3995     MULTIPLICITY : 648     N. OF SYMM. OP. :   2
  MG   6   8  10  14  18  19  21  23  25
  --------------------------------------------------------------------------    
  XX   1   2   3   4   5   7   9  11  12  13  15  16  17  20  22  24  26  27
 <><><><><><><><><><><><><><><><><><><><><><><><><><><><><><><><><><><>
  CLASS :         3996     MULTIPLICITY :1296     N. OF SYMM. OP. :   1
  MG   6   8  10  14  18  19  21  22  27
  --------------------------------------------------------------------------    
  XX   1   2   3   4   5   7   9  11  12  13  15  16  17  20  23  24  25  26
 <><><><><><><><><><><><><><><><><><><><><><><><><><><><><><><><><><><>
  CLASS :         3997     MULTIPLICITY : 648     N. OF SYMM. OP. :   2
  MG   6   8  10  14  18  19  21  22  26
  --------------------------------------------------------------------------    
  XX   1   2   3   4   5   7   9  11  12  13  15  16  17  20  23  24  25  27
 <><><><><><><><><><><><><><><><><><><><><><><><><><><><><><><><><><><>
  CLASS :         3998     MULTIPLICITY : 648     N. OF SYMM. OP. :   2
  MG   6   8  10  14  18  19  21  22  25
  --------------------------------------------------------------------------    
  XX   1   2   3   4   5   7   9  11  12  13  15  16  17  20  23  24  26  27
 <><><><><><><><><><><><><><><><><><><><><><><><><><><><><><><><><><><>
  CLASS :         3999     MULTIPLICITY : 648     N. OF SYMM. OP. :   2
  MG   6   8  10  14  18  19  21  22  24
  --------------------------------------------------------------------------    
  XX   1   2   3   4   5   7   9  11  12  13  15  16  17  20  23  25  26  27
 <><><><><><><><><><><><><><><><><><><><><><><><><><><><><><><><><><><>
  CLASS :         4000     MULTIPLICITY : 648     N. OF SYMM. OP. :   2
  MG   6   8  10  14  17  18  19  21  25
  --------------------------------------------------------------------------    
  XX   1   2   3   4   5   7   9  11  12  13  15  16  20  22  23  24  26  27
 <><><><><><><><><><><><><><><><><><><><><><><><><><><><><><><><><><><>
  CLASS :         4001     MULTIPLICITY : 648     N. OF SYMM. OP. :   2
  MG   6   8  10  14  17  18  19  21  22
  --------------------------------------------------------------------------    
  XX   1   2   3   4   5   7   9  11  12  13  15  16  20  23  24  25  26  27
 <><><><><><><><><><><><><><><><><><><><><><><><><><><><><><><><><><><>
  CLASS :         4002     MULTIPLICITY : 216     N. OF SYMM. OP. :   6
  MG   6   8  10  14  17  18  19  20  25
  --------------------------------------------------------------------------    
  XX   1   2   3   4   5   7   9  11  12  13  15  16  21  22  23  24  26  27
 <><><><><><><><><><><><><><><><><><><><><><><><><><><><><><><><><><><>
  CLASS :         4003     MULTIPLICITY : 648     N. OF SYMM. OP. :   2
  MG   6   8  10  14  16  19  21  25  27
  --------------------------------------------------------------------------    
  XX   1   2   3   4   5   7   9  11  12  13  15  17  18  20  22  23  24  26
 <><><><><><><><><><><><><><><><><><><><><><><><><><><><><><><><><><><>
  CLASS :         4004     MULTIPLICITY :1296     N. OF SYMM. OP. :   1
  MG   6   8  10  14  16  19  21  23  27
  --------------------------------------------------------------------------    
  XX   1   2   3   4   5   7   9  11  12  13  15  17  18  20  22  24  25  26
 <><><><><><><><><><><><><><><><><><><><><><><><><><><><><><><><><><><>
  CLASS :         4005     MULTIPLICITY : 648     N. OF SYMM. OP. :   2
  MG   6   8  10  14  16  19  21  22  27
  --------------------------------------------------------------------------    
  XX   1   2   3   4   5   7   9  11  12  13  15  17  18  20  23  24  25  26
 <><><><><><><><><><><><><><><><><><><><><><><><><><><><><><><><><><><>
  CLASS :         4006     MULTIPLICITY :1296     N. OF SYMM. OP. :   1
  MG   6   8  10  14  16  19  20  24  27
  --------------------------------------------------------------------------    
  XX   1   2   3   4   5   7   9  11  12  13  15  17  18  21  22  23  25  26
 <><><><><><><><><><><><><><><><><><><><><><><><><><><><><><><><><><><>
  CLASS :         4007     MULTIPLICITY : 648     N. OF SYMM. OP. :   2
  MG   6   8  10  14  16  19  20  21  24
  --------------------------------------------------------------------------    
  XX   1   2   3   4   5   7   9  11  12  13  15  17  18  22  23  25  26  27
 <><><><><><><><><><><><><><><><><><><><><><><><><><><><><><><><><><><>
  CLASS :         4008     MULTIPLICITY : 648     N. OF SYMM. OP. :   2
  MG   6   8  10  14  16  17  19  21  25
  --------------------------------------------------------------------------    
  XX   1   2   3   4   5   7   9  11  12  13  15  18  20  22  23  24  26  27
 <><><><><><><><><><><><><><><><><><><><><><><><><><><><><><><><><><><>
  CLASS :         4009     MULTIPLICITY : 648     N. OF SYMM. OP. :   2
  MG   6   8  10  14  16  17  19  21  22
  --------------------------------------------------------------------------    
  XX   1   2   3   4   5   7   9  11  12  13  15  18  20  23  24  25  26  27
 <><><><><><><><><><><><><><><><><><><><><><><><><><><><><><><><><><><>
  CLASS :         4010     MULTIPLICITY : 324     N. OF SYMM. OP. :   4
  MG   6   8   9  12  14  16  19  20  22
  --------------------------------------------------------------------------    
  XX   1   2   3   4   5   7  10  11  13  15  17  18  21  23  24  25  26  27
 <><><><><><><><><><><><><><><><><><><><><><><><><><><><><><><><><><><>
  CLASS :         4011     MULTIPLICITY : 648     N. OF SYMM. OP. :   2
  MG   6   8   9  12  13  17  19  20  22
  --------------------------------------------------------------------------    
  XX   1   2   3   4   5   7  10  11  14  15  16  18  21  23  24  25  26  27
 <><><><><><><><><><><><><><><><><><><><><><><><><><><><><><><><><><><>
  CLASS :         4012     MULTIPLICITY :1296     N. OF SYMM. OP. :   1
  MG   6   8   9  12  13  16  19  20  23
  --------------------------------------------------------------------------    
  XX   1   2   3   4   5   7  10  11  14  15  17  18  21  22  24  25  26  27
 <><><><><><><><><><><><><><><><><><><><><><><><><><><><><><><><><><><>
  CLASS :         4013     MULTIPLICITY : 648     N. OF SYMM. OP. :   2
  MG   6   8   9  11  13  18  19  20  22
  --------------------------------------------------------------------------    
  XX   1   2   3   4   5   7  10  12  14  15  16  17  21  23  24  25  26  27
 <><><><><><><><><><><><><><><><><><><><><><><><><><><><><><><><><><><>
  CLASS :         4014     MULTIPLICITY : 648     N. OF SYMM. OP. :   2
  MG   6   8   9  11  13  17  19  21  22
  --------------------------------------------------------------------------    
  XX   1   2   3   4   5   7  10  12  14  15  16  18  20  23  24  25  26  27
 <><><><><><><><><><><><><><><><><><><><><><><><><><><><><><><><><><><>
  CLASS :         4015     MULTIPLICITY : 216     N. OF SYMM. OP. :   6
  MG   6   8   9  11  13  16  20  21  22
  --------------------------------------------------------------------------    
  XX   1   2   3   4   5   7  10  12  14  15  17  18  19  23  24  25  26  27
 <><><><><><><><><><><><><><><><><><><><><><><><><><><><><><><><><><><>
  CLASS :         4016     MULTIPLICITY :1296     N. OF SYMM. OP. :   1
  MG   6   8   9  11  13  16  19  21  23
  --------------------------------------------------------------------------    
  XX   1   2   3   4   5   7  10  12  14  15  17  18  20  22  24  25  26  27
 <><><><><><><><><><><><><><><><><><><><><><><><><><><><><><><><><><><>
  CLASS :         4017     MULTIPLICITY : 648     N. OF SYMM. OP. :   2
  MG   6   8   9  11  13  16  19  20  24
  --------------------------------------------------------------------------    
  XX   1   2   3   4   5   7  10  12  14  15  17  18  21  22  23  25  26  27
 <><><><><><><><><><><><><><><><><><><><><><><><><><><><><><><><><><><>
  CLASS :         4018     MULTIPLICITY : 216     N. OF SYMM. OP. :   6
  MG   6   8   9  11  13  14  19  21  25
  --------------------------------------------------------------------------    
  XX   1   2   3   4   5   7  10  12  15  16  17  18  20  22  23  24  26  27
   WARNING : THIS CONFIG CAN BE OBTAINED WITH A SMALLER CELL
 <><><><><><><><><><><><><><><><><><><><><><><><><><><><><><><><><><><>
  CLASS :         4019     MULTIPLICITY : 108     N. OF SYMM. OP. :  12
  MG   6   8   9  10  14  18  19  20  22
  --------------------------------------------------------------------------    
  XX   1   2   3   4   5   7  11  12  13  15  16  17  21  23  24  25  26  27
 <><><><><><><><><><><><><><><><><><><><><><><><><><><><><><><><><><><>
  CLASS :         4020     MULTIPLICITY :  72     N. OF SYMM. OP. :  18
  MG   6   8   9  10  13  15  19  20  26
  --------------------------------------------------------------------------    
  XX   1   2   3   4   5   7  11  12  14  16  17  18  21  22  23  24  25  27
   WARNING : THIS CONFIG CAN BE OBTAINED WITH A SMALLER CELL
 <><><><><><><><><><><><><><><><><><><><><><><><><><><><><><><><><><><>
  CLASS :         4021     MULTIPLICITY : 108     N. OF SYMM. OP. :  12
  MG   6   7   8  12  13  14  19  20  27
  --------------------------------------------------------------------------    
  XX   1   2   3   4   5   9  10  11  15  16  17  18  21  22  23  24  25  26
   WARNING : THIS CONFIG CAN BE OBTAINED WITH A SMALLER CELL
 <><><><><><><><><><><><><><><><><><><><><><><><><><><><><><><><><><><>
  CLASS :         4022     MULTIPLICITY : 324     N. OF SYMM. OP. :   4
  MG   6   7   8  11  13  18  19  21  23
  --------------------------------------------------------------------------    
  XX   1   2   3   4   5   9  10  12  14  15  16  17  20  22  24  25  26  27
 <><><><><><><><><><><><><><><><><><><><><><><><><><><><><><><><><><><>
  CLASS :         4023     MULTIPLICITY :  12     N. OF SYMM. OP. : 108
  MG   3   5   7  11  13  18  19  24  26
  --------------------------------------------------------------------------    
  XX   1   2   4   6   8   9  10  12  14  15  16  17  20  21  22  23  25  27
   WARNING : THIS CONFIG CAN BE OBTAINED WITH A SMALLER CELL
 ===============================================================================
 INFORMATION **** CONFCOUNT **** CALCULATION COMPLETE
 TTTTTTTTTTTTTTTTTTTTTTTTTTTTTT END         TELAPSE       10.81 TCPU        9.59
 EEEEEEEEEE TERMINATION  DATE 23 03 2022 TIME 17:10:39.1
NODE    0 CPU TIME =         9.591
    TOTAL CPU TIME =       432.008
end_date Wed 23 Mar 17:10:39 GMT 2022
Wed 23 Mar 17:10:39 GMT 2022
 
TEMPORARY          SAVED (in /rds/general/user/bc713/home/classification)
binary wf (fort.9) is not written on this node
fort.34            mgo_confrand.gui  330699   Mar 23 17:10
 
Disk usage:total 385
-rw-------. 1 bc713 hpc-nmh 330699 Mar 23 17:10 fort.34
-rw-------. 1 bc713 hpc-nmh    163 Mar 23 17:10 INPUT
-rw-------. 1 bc713 hpc-nmh  13160 Mar 23 17:08 runcryP
<du -m>
1	/rds/general/ephemeral/tmpdir/pbs.5336881.pbs/mgo_confrand_267610/
</du -m>
Filesystem                            1K-blocks           Used     Available Use% Mounted on
hpc-ib.rds.ic.ac.uk:/rds/general 15080898002944 11041798922240 4039099080704  74% /rds/general
hpc-ib.rds.ic.ac.uk:/rds/general 15080898002944 11041798922240 4039099080704  74% /rds/general
#########
node: cx2-4-0-3.cx2.hpc.ic.ac.uk
 
TEMPORARY          SAVED (in /rds/general/user/bc713/home/classification)
binary wf (fort.9) is not written on this node
fort.34            mgo_confrand.gui  330699   Mar 23 17:10
 
Disk usage:total 385
-rwx------. 1 bc713 hpc-nmh   7358 Mar 23 17:10 checkfile
-rwxr-xr-x. 1 bc713 hpc-nmh   7358 Mar 23 17:10 checkfile0
-rw-------. 1 bc713 hpc-nmh 330699 Mar 23 17:10 fort.34
-rw-------. 1 bc713 hpc-nmh    163 Mar 23 17:10 INPUT
-rw-------. 1 bc713 hpc-nmh  13160 Mar 23 17:08 runcryP
<du -m>
1	/rds/general/ephemeral/tmpdir/pbs.5336881.pbs/mgo_confrand_267610/
</du -m>
Filesystem                            1K-blocks           Used     Available Use% Mounted on
hpc-ib.rds.ic.ac.uk:/rds/general 15080898002944 11041798561792 4039099441152  74% /rds/general
hpc-ib.rds.ic.ac.uk:/rds/general 15080898002944 11041798561792 4039099441152  74% /rds/general
